/*--------------------------------*- C++ -*----------------------------------*\
| =========                 |                                                 |
| \\      /  F ield         | OpenFOAM: The Open Source CFD Toolbox           |
|  \\    /   O peration     | Version:  2412                                  |
|   \\  /    A nd           | Website:  www.openfoam.com                      |
|    \\/     M anipulation  |                                                 |
\*---------------------------------------------------------------------------*/
FoamFile
{
    version     2.0;
    format      ascii;
    arch        "LSB;label=32;scalar=64";
    class       surfaceScalarField;
    location    "5e-05";
    object      phi;
}
// * * * * * * * * * * * * * * * * * * * * * * * * * * * * * * * * * * * * * //

dimensions      [0 3 -1 0 0 0 0];

oriented        oriented;

internalField   nonuniform List<scalar> 
40656
(
5.3698e-18
3.0515e-20
3.0525e-20
5.37428e-18
-2.21017e-21
-2.19605e-21
5.36941e-18
2.46944e-21
2.48655e-21
5.36993e-18
-2.26666e-22
-2.12109e-22
5.37256e-18
-1.29067e-21
-1.27599e-21
5.37355e-18
-4.83162e-22
-4.76092e-22
5.37426e-18
-3.55077e-22
-3.51133e-22
5.37485e-18
-2.94272e-22
-2.92005e-22
5.37514e-18
-1.52993e-22
-1.52135e-22
5.37527e-18
-6.92391e-23
-6.92922e-23
5.37533e-18
-3.5936e-23
-3.63264e-23
5.37535e-18
-1.57926e-23
-1.72007e-23
5.37535e-18
-3.35974e-24
-4.88635e-24
5.37534e-18
1.98217e-24
8.96328e-25
5.37532e-18
3.05367e-24
2.19579e-24
5.37531e-18
2.61249e-24
1.98181e-24
5.3753e-18
1.94133e-24
1.68682e-24
5.37529e-18
1.34549e-24
1.43244e-24
5.37529e-18
1.00931e-24
1.22168e-24
5.37528e-18
9.13085e-25
1.22598e-24
5.37528e-18
1.07078e-24
1.3426e-24
5.37528e-18
1.34521e-24
1.58612e-24
5.37528e-18
1.59876e-24
1.90016e-24
5.37528e-18
1.85363e-24
2.18459e-24
5.37528e-18
2.11236e-24
2.43203e-24
5.37528e-18
2.34908e-24
2.6353e-24
5.37528e-18
2.53196e-24
2.79216e-24
5.37528e-18
2.67053e-24
2.90424e-24
5.37529e-18
2.77645e-24
2.98327e-24
5.37529e-18
2.84783e-24
3.03137e-24
5.37529e-18
2.88414e-24
3.04703e-24
5.37529e-18
2.89204e-24
3.03512e-24
5.37529e-18
2.88081e-24
3.00489e-24
5.3753e-18
2.8542e-24
2.96109e-24
5.3753e-18
2.81725e-24
2.90687e-24
5.3753e-18
2.77445e-24
2.84497e-24
5.3753e-18
2.72464e-24
2.77774e-24
5.3753e-18
2.66504e-24
2.70598e-24
5.3753e-18
2.59973e-24
2.63076e-24
5.37531e-18
2.52909e-24
2.55335e-24
5.37531e-18
2.45395e-24
2.47385e-24
5.37531e-18
2.37547e-24
2.39252e-24
5.37531e-18
2.2945e-24
2.30989e-24
5.37531e-18
2.2121e-24
2.22655e-24
5.37531e-18
2.12785e-24
2.14161e-24
5.37532e-18
2.04213e-24
2.05559e-24
5.37532e-18
1.95554e-24
1.96891e-24
5.37532e-18
1.86874e-24
1.88217e-24
5.37532e-18
1.7818e-24
1.79535e-24
5.37532e-18
1.69531e-24
1.70914e-24
5.37532e-18
1.60936e-24
1.62339e-24
5.37532e-18
1.52451e-24
1.53879e-24
5.37532e-18
1.44079e-24
1.45531e-24
5.37532e-18
1.35885e-24
1.37365e-24
5.37533e-18
1.27859e-24
1.29352e-24
5.37533e-18
1.20038e-24
1.21542e-24
5.37533e-18
1.12413e-24
1.13923e-24
5.37533e-18
1.05035e-24
1.06552e-24
5.37533e-18
9.78651e-25
9.93768e-25
5.37533e-18
9.09341e-25
9.24458e-25
5.37533e-18
8.42253e-25
8.5733e-25
5.37533e-18
7.77837e-25
7.92875e-25
5.37533e-18
7.15782e-25
7.30732e-25
5.37533e-18
6.56443e-25
6.71403e-25
5.37533e-18
5.9957e-25
6.14394e-25
5.37533e-18
5.45514e-25
5.60109e-25
5.37533e-18
4.93875e-25
5.08082e-25
5.37533e-18
4.44904e-25
4.58742e-25
5.37533e-18
3.9819e-25
4.11528e-25
5.37533e-18
3.54027e-25
3.66545e-25
5.37533e-18
3.11481e-25
3.23835e-25
5.37533e-18
2.71317e-25
2.8434e-25
5.37533e-18
2.33431e-25
2.47936e-25
5.37533e-18
1.98662e-25
2.14296e-25
5.37533e-18
1.65835e-25
1.80083e-25
5.37533e-18
1.35322e-25
1.499e-25
5.37533e-18
1.09035e-25
1.23272e-25
5.37533e-18
8.76454e-26
1.01111e-25
5.37533e-18
7.10076e-26
8.41149e-26
5.37533e-18
5.98332e-26
7.32443e-26
5.37533e-18
5.52345e-26
6.87587e-26
5.37533e-18
5.74549e-26
7.10193e-26
5.37533e-18
6.47755e-26
7.77976e-26
5.37533e-18
7.48375e-26
8.65688e-26
5.37533e-18
8.26559e-26
9.30466e-26
5.37533e-18
8.31938e-26
9.34581e-26
5.37533e-18
7.04376e-26
7.98905e-26
5.37533e-18
4.131e-26
4.86902e-26
5.37533e-18
6.43802e-27
1.3629e-26
5.37533e-18
-1.67412e-26
-1.04908e-26
5.37533e-18
-1.47407e-26
-1.17365e-26
5.37533e-18
1.03174e-25
1.01702e-25
5.37533e-18
6.67845e-25
6.64788e-25
5.37532e-18
1.75112e-24
1.75018e-24
5.37532e-18
2.75755e-24
2.76683e-24
5.3753e-18
6.06501e-24
6.12686e-24
5.37528e-18
1.39584e-23
1.41513e-23
5.37525e-18
1.17457e-23
1.20782e-23
5.37519e-18
2.90911e-23
2.94468e-23
5.89091e-23
5.91286e-23
1.12614e-17
2.95909e-20
9.27336e-20
1.1271e-17
-1.31352e-21
-1.03178e-20
1.12659e-17
3.42353e-21
4.33446e-21
1.12659e-17
-7.99698e-22
7.14905e-22
1.12702e-17
-2.11512e-21
-3.36098e-21
1.12718e-17
-1.03811e-21
-8.9938e-22
1.12728e-17
-6.98513e-22
-6.25349e-22
1.12737e-17
-4.92439e-22
-7.36266e-22
1.12742e-17
-2.30926e-22
-4.41706e-22
1.12744e-17
-6.70663e-23
-2.48298e-22
1.12745e-17
1.8414e-24
-1.79661e-22
1.12746e-17
3.58202e-23
-1.29887e-22
1.12746e-17
5.08278e-23
-8.8285e-23
1.12746e-17
5.20303e-23
-6.35508e-23
1.12745e-17
4.64427e-23
-5.07578e-23
1.12745e-17
3.94087e-23
-4.27682e-23
1.12745e-17
3.24738e-23
-3.60712e-23
1.12745e-17
2.63023e-23
-2.98771e-23
1.12745e-17
2.11189e-23
-2.3916e-23
1.12745e-17
1.69411e-23
-1.81439e-23
1.12745e-17
1.37304e-23
-1.27152e-23
1.12745e-17
1.13589e-23
-7.80461e-24
1.12745e-17
9.63326e-24
-3.64328e-24
1.12745e-17
8.46191e-24
-1.43542e-25
1.12745e-17
7.69923e-24
2.69955e-24
1.12745e-17
7.2388e-24
4.88594e-24
1.12745e-17
7.0082e-24
6.46203e-24
1.12745e-17
6.93888e-24
7.53882e-24
1.12745e-17
6.97906e-24
8.21044e-24
1.12745e-17
7.08589e-24
8.55826e-24
1.12745e-17
7.23742e-24
8.63202e-24
1.12745e-17
7.41564e-24
8.50029e-24
1.12745e-17
7.59973e-24
8.2324e-24
1.12745e-17
7.7769e-24
7.8694e-24
1.12745e-17
7.93504e-24
7.45066e-24
1.12746e-17
8.06681e-24
7.00507e-24
1.12746e-17
8.17058e-24
6.54642e-24
1.12746e-17
8.23897e-24
6.08894e-24
1.12746e-17
8.26999e-24
5.64562e-24
1.12746e-17
8.25996e-24
5.21894e-24
1.12746e-17
8.21331e-24
4.81376e-24
1.12746e-17
8.13265e-24
4.42897e-24
1.12746e-17
8.01998e-24
4.06885e-24
1.12746e-17
7.87759e-24
3.73563e-24
1.12746e-17
7.70931e-24
3.42538e-24
1.12746e-17
7.5179e-24
3.13539e-24
1.12746e-17
7.30768e-24
2.8648e-24
1.12746e-17
7.0819e-24
2.61131e-24
1.12746e-17
6.84366e-24
2.37393e-24
1.12746e-17
6.59523e-24
2.15134e-24
1.12746e-17
6.33955e-24
1.94266e-24
1.12746e-17
6.07876e-24
1.74622e-24
1.12746e-17
5.81515e-24
1.56181e-24
1.12746e-17
5.55048e-24
1.38849e-24
1.12746e-17
5.28652e-24
1.2256e-24
1.12746e-17
5.02471e-24
1.07202e-24
1.12746e-17
4.767e-24
9.26718e-25
1.12746e-17
4.51366e-24
7.89457e-25
1.12746e-17
4.26531e-24
6.60647e-25
1.12746e-17
4.02211e-24
5.39646e-25
1.12746e-17
3.78514e-24
4.26157e-25
1.12746e-17
3.55512e-24
3.18985e-25
1.12746e-17
3.3328e-24
2.18122e-25
1.12746e-17
3.11793e-24
1.23573e-25
1.12746e-17
2.91082e-24
3.57564e-26
1.12746e-17
2.71133e-24
-4.59626e-26
1.12746e-17
2.5198e-24
-1.21689e-25
1.12746e-17
2.336e-24
-1.9197e-25
1.12746e-17
2.16e-24
-2.57263e-25
1.12746e-17
1.99207e-24
-3.18016e-25
1.12746e-17
1.83074e-24
-3.7303e-25
1.12746e-17
1.67585e-24
-4.21945e-25
1.12746e-17
1.52677e-24
-4.63481e-25
1.12746e-17
1.3843e-24
-4.97635e-25
1.12746e-17
1.24824e-24
-5.23967e-25
1.12746e-17
1.12008e-24
-5.44201e-25
1.12746e-17
1.00195e-24
-5.56212e-25
1.12746e-17
8.9502e-25
-5.57546e-25
1.12746e-17
8.01002e-25
-5.45608e-25
1.12746e-17
7.21756e-25
-5.21473e-25
1.12746e-17
6.59801e-25
-4.82373e-25
1.12746e-17
6.15029e-25
-4.30137e-25
1.12746e-17
5.85222e-25
-3.68783e-25
1.12746e-17
5.65988e-25
-3.05621e-25
1.12746e-17
5.48473e-25
-2.51515e-25
1.12746e-17
5.18247e-25
-2.1711e-25
1.12746e-17
4.59774e-25
-2.1317e-25
1.12746e-17
3.64826e-25
-2.43793e-25
1.12746e-17
2.5343e-25
-2.86506e-25
1.12746e-17
1.57825e-25
-3.09336e-25
1.12746e-17
1.28303e-25
-3.30155e-25
1.12746e-17
3.43532e-25
-1.05662e-25
1.12746e-17
1.3434e-24
1.27916e-24
1.12746e-17
3.2571e-24
3.70768e-24
1.12746e-17
5.65764e-24
4.75672e-24
1.12746e-17
1.17004e-23
1.36442e-23
1.12746e-17
2.30237e-23
3.43506e-23
1.12745e-17
2.41658e-23
1.63819e-23
1.12744e-17
4.5773e-23
7.17332e-23
6.60937e-23
1.62295e-22
1.49462e-17
2.14967e-20
1.09417e-19
1.49689e-17
3.49613e-21
-2.73184e-20
1.49624e-17
3.20514e-21
6.93675e-21
1.49622e-17
-7.89324e-22
3.08573e-22
1.49674e-17
-1.74981e-21
-5.39987e-21
1.49686e-17
-1.13102e-21
-1.06188e-21
1.49695e-17
-8.60468e-22
-6.4485e-22
1.49705e-17
-5.92423e-22
-8.90088e-22
1.4971e-17
-2.96767e-22
-4.87679e-22
1.49712e-17
-1.06031e-22
-2.31834e-22
1.49714e-17
-1.38042e-23
-1.63808e-22
1.49715e-17
3.37386e-23
-1.17064e-22
1.49715e-17
5.46742e-23
-7.43074e-23
1.49715e-17
5.83443e-23
-5.13335e-23
1.49716e-17
5.32245e-23
-4.15402e-23
1.49716e-17
4.5532e-23
-3.56862e-23
1.49716e-17
3.75045e-23
-3.05528e-23
1.49716e-17
3.02087e-23
-2.55511e-23
1.49716e-17
2.39894e-23
-2.05075e-23
1.49716e-17
1.8965e-23
-1.54027e-23
1.49716e-17
1.50893e-23
-1.03499e-23
1.49716e-17
1.22396e-23
-5.62079e-24
1.49716e-17
1.02382e-23
-1.45895e-24
1.49716e-17
8.8432e-24
2.22791e-24
1.49716e-17
7.89201e-24
5.33115e-24
1.49716e-17
7.28656e-24
7.7806e-24
1.49716e-17
6.99061e-24
9.61639e-24
1.49716e-17
6.92117e-24
1.09059e-23
1.49716e-17
6.9974e-24
1.17379e-23
1.49716e-17
7.16182e-24
1.219e-23
1.49716e-17
7.37768e-24
1.23451e-23
1.49717e-17
7.60842e-24
1.23183e-23
1.49717e-17
7.84792e-24
1.21326e-23
1.49717e-17
8.0886e-24
1.18199e-23
1.49717e-17
8.30967e-24
1.14279e-23
1.49717e-17
8.50601e-24
1.09768e-23
1.49717e-17
8.66862e-24
1.04984e-23
1.49717e-17
8.7889e-24
1.00095e-23
1.49717e-17
8.86564e-24
9.51824e-24
1.49717e-17
8.89607e-24
9.03162e-24
1.49717e-17
8.87753e-24
8.55871e-24
1.49717e-17
8.8171e-24
8.09809e-24
1.49717e-17
8.7173e-24
7.65268e-24
1.49717e-17
8.58103e-24
7.22499e-24
1.49717e-17
8.41325e-24
6.81318e-24
1.49717e-17
8.2179e-24
6.41459e-24
1.49717e-17
7.99998e-24
6.02994e-24
1.49717e-17
7.76344e-24
5.65958e-24
1.49717e-17
7.51127e-24
5.3029e-24
1.49717e-17
7.24679e-24
4.95886e-24
1.49717e-17
6.97286e-24
4.62762e-24
1.49717e-17
6.69219e-24
4.30904e-24
1.49718e-17
6.40698e-24
4.00299e-24
1.49718e-17
6.11963e-24
3.70972e-24
1.49718e-17
5.83148e-24
3.42865e-24
1.49718e-17
5.54464e-24
3.16006e-24
1.49718e-17
5.26173e-24
2.90267e-24
1.49718e-17
4.98386e-24
2.65568e-24
1.49718e-17
4.71091e-24
2.41961e-24
1.49718e-17
4.44366e-24
2.19415e-24
1.49718e-17
4.18303e-24
1.979e-24
1.49718e-17
3.92983e-24
1.77435e-24
1.49718e-17
3.68391e-24
1.58079e-24
1.49718e-17
3.44644e-24
1.3969e-24
1.49718e-17
3.21765e-24
1.22193e-24
1.49718e-17
2.99761e-24
1.05641e-24
1.49718e-17
2.78603e-24
9.00033e-25
1.49718e-17
2.58321e-24
7.52491e-25
1.49718e-17
2.38891e-24
6.1338e-25
1.49718e-17
2.20299e-24
4.84135e-25
1.49718e-17
2.02408e-24
3.63046e-25
1.49718e-17
1.85226e-24
2.50185e-25
1.49718e-17
1.68663e-24
1.47117e-25
1.49718e-17
1.52766e-24
5.45774e-26
1.49718e-17
1.3759e-24
-2.62949e-26
1.49718e-17
1.23474e-24
-9.78483e-26
1.49718e-17
1.10647e-24
-1.56578e-25
1.49718e-17
9.94178e-25
-1.9927e-25
1.49718e-17
9.0079e-25
-2.25385e-25
1.49718e-17
8.29093e-25
-2.32605e-25
1.49718e-17
7.81145e-25
-2.19649e-25
1.49718e-17
7.56635e-25
-1.87079e-25
1.49718e-17
7.53739e-25
-1.42991e-25
1.49718e-17
7.65943e-25
-9.53868e-26
1.49718e-17
7.79676e-25
-5.64741e-26
1.49718e-17
7.76142e-25
-4.36859e-26
1.49718e-17
7.31989e-25
-7.80157e-26
1.49718e-17
6.32991e-25
-1.69816e-25
1.49718e-17
5.01999e-25
-2.96559e-25
1.49718e-17
3.98381e-25
-4.28386e-25
1.49718e-17
3.93535e-25
-6.30805e-25
1.49718e-17
7.43099e-25
-6.18926e-25
1.49718e-17
1.99742e-24
9.11285e-25
1.49718e-17
4.52351e-24
3.63624e-24
1.49718e-17
8.32725e-24
3.51771e-24
1.49718e-17
1.559e-23
1.46528e-23
1.49717e-17
2.75375e-23
4.45737e-23
1.49717e-17
3.52782e-23
9.95418e-24
1.49716e-17
5.29986e-23
8.46228e-23
5.52545e-23
1.91575e-22
1.73301e-17
1.4364e-20
1.16221e-19
1.73574e-17
3.66896e-21
-2.73362e-20
1.73497e-17
1.53245e-21
9.58545e-21
1.73504e-17
-7.8718e-22
-5.78541e-22
1.73563e-17
-1.34296e-21
-6.14348e-21
1.73573e-17
-1.02877e-21
-9.83443e-22
1.73579e-17
-7.89769e-22
-7.18206e-22
1.73589e-17
-5.21838e-22
-1.01267e-21
1.73593e-17
-2.66052e-22
-5.12546e-22
1.73595e-17
-1.03131e-22
-2.1869e-22
1.73597e-17
-1.95116e-23
-1.53388e-22
1.73597e-17
2.48429e-23
-1.0838e-22
1.73598e-17
4.41596e-23
-6.57115e-23
1.73598e-17
4.80283e-23
-4.41787e-23
1.73598e-17
4.40446e-23
-3.62158e-23
1.73599e-17
3.73583e-23
-3.17343e-23
1.73599e-17
3.0328e-23
-2.74251e-23
1.73599e-17
2.39881e-23
-2.3148e-23
1.73599e-17
1.87051e-23
-1.89157e-23
1.73599e-17
1.45347e-23
-1.44756e-23
1.73599e-17
1.13893e-23
-9.87854e-24
1.73599e-17
9.10528e-24
-5.42928e-24
1.73599e-17
7.48707e-24
-1.20334e-24
1.736e-17
6.39078e-24
2.51225e-24
1.736e-17
5.72983e-24
5.52946e-24
1.736e-17
5.35942e-24
7.8883e-24
1.736e-17
5.2359e-24
9.70783e-24
1.736e-17
5.28267e-24
1.10446e-23
1.736e-17
5.43469e-24
1.19542e-23
1.736e-17
5.64673e-24
1.2488e-23
1.736e-17
5.89028e-24
1.27337e-23
1.736e-17
6.15194e-24
1.2753e-23
1.736e-17
6.41787e-24
1.26036e-23
1.736e-17
6.67676e-24
1.23227e-23
1.736e-17
6.9038e-24
1.19579e-23
1.736e-17
7.08152e-24
1.15679e-23
1.736e-17
7.2318e-24
1.11333e-23
1.736e-17
7.35565e-24
1.06679e-23
1.736e-17
7.438e-24
1.01969e-23
1.736e-17
7.47421e-24
9.72694e-24
1.736e-17
7.46717e-24
9.2596e-24
1.73601e-17
7.42298e-24
8.80453e-24
1.73601e-17
7.34354e-24
8.36061e-24
1.73601e-17
7.23199e-24
7.92631e-24
1.73601e-17
7.09207e-24
7.50509e-24
1.73601e-17
6.92732e-24
7.09518e-24
1.73601e-17
6.74256e-24
6.69808e-24
1.73601e-17
6.54124e-24
6.31413e-24
1.73601e-17
6.3264e-24
5.94216e-24
1.73601e-17
6.10072e-24
5.58146e-24
1.73601e-17
5.86678e-24
5.23267e-24
1.73601e-17
5.62691e-24
4.89524e-24
1.73601e-17
5.38324e-24
4.56952e-24
1.73601e-17
5.13779e-24
4.25592e-24
1.73601e-17
4.89312e-24
3.95142e-24
1.73601e-17
4.65076e-24
3.65582e-24
1.73601e-17
4.41061e-24
3.37453e-24
1.73601e-17
4.17357e-24
3.10642e-24
1.73601e-17
3.94102e-24
2.84893e-24
1.73601e-17
3.71394e-24
2.6016e-24
1.73601e-17
3.49304e-24
2.36506e-24
1.73601e-17
3.27842e-24
2.13918e-24
1.73601e-17
3.0701e-24
1.92354e-24
1.73602e-17
2.86926e-24
1.71813e-24
1.73602e-17
2.67623e-24
1.52289e-24
1.73602e-17
2.49066e-24
1.33781e-24
1.73602e-17
2.31228e-24
1.16285e-24
1.73602e-17
2.14124e-24
9.97794e-25
1.73602e-17
1.97755e-24
8.42007e-25
1.73602e-17
1.82021e-24
6.95664e-25
1.73602e-17
1.66927e-24
5.58193e-25
1.73602e-17
1.52458e-24
4.2899e-25
1.73602e-17
1.38574e-24
3.08585e-25
1.73602e-17
1.25281e-24
1.97885e-25
1.73602e-17
1.12774e-24
9.87836e-26
1.73602e-17
1.01397e-24
1.16325e-26
1.73602e-17
9.14498e-25
-6.16159e-26
1.73602e-17
8.3135e-25
-1.15113e-25
1.73602e-17
7.68427e-25
-1.47148e-25
1.73602e-17
7.2962e-25
-1.5568e-25
1.73602e-17
7.18996e-25
-1.42148e-25
1.73602e-17
7.37553e-25
-1.09615e-25
1.73602e-17
7.83491e-25
-6.36712e-26
1.73602e-17
8.49712e-25
-1.43597e-26
1.73602e-17
9.21995e-25
2.29487e-26
1.73602e-17
9.7839e-25
2.36043e-26
1.73602e-17
9.90315e-25
-4.33884e-26
1.73602e-17
9.35237e-25
-1.95184e-25
1.73602e-17
8.1427e-25
-3.90588e-25
1.73602e-17
6.80538e-25
-5.90025e-25
1.73602e-17
5.79112e-25
-8.90863e-25
1.73602e-17
7.34856e-25
-9.54337e-25
1.73602e-17
1.55576e-24
8.40945e-25
1.73602e-17
3.41546e-24
4.3029e-24
1.73602e-17
6.59431e-24
4.57701e-24
1.73601e-17
1.24516e-23
1.73921e-23
1.73601e-17
2.09856e-23
5.4055e-23
1.73601e-17
2.77561e-23
2.12225e-23
1.736e-17
4.08278e-23
1.06088e-22
3.84312e-23
2.00728e-22
1.87784e-17
7.11393e-21
1.21896e-19
1.88087e-17
1.89884e-21
-2.83684e-20
1.88013e-17
6.07949e-22
8.44789e-21
1.88028e-17
-4.06287e-22
-1.59978e-21
1.88088e-17
-7.11359e-22
-6.57717e-21
1.88096e-17
-5.85147e-22
-1.09308e-21
1.88101e-17
-4.37191e-22
-8.42434e-22
1.88109e-17
-2.75336e-22
-1.08559e-21
1.88113e-17
-1.34003e-22
-5.14055e-22
1.88114e-17
-4.576e-23
-2.0279e-22
1.88115e-17
-1.28755e-24
-1.42898e-22
1.88116e-17
2.14928e-23
-1.00443e-22
1.88116e-17
3.03356e-23
-5.86348e-23
1.88116e-17
3.05378e-23
-3.8362e-23
1.88117e-17
2.65751e-23
-3.21637e-23
1.88117e-17
2.14204e-23
-2.89345e-23
1.88117e-17
1.6475e-23
-2.5505e-23
1.88117e-17
1.23259e-23
-2.19381e-23
1.88117e-17
9.11531e-24
-1.82745e-23
1.88118e-17
6.75311e-24
-1.42364e-23
1.88118e-17
5.099e-24
-9.95378e-24
1.88118e-17
3.98067e-24
-5.6938e-24
1.88118e-17
3.20532e-24
-1.57501e-24
1.88118e-17
2.77093e-24
2.02247e-24
1.88118e-17
2.62192e-24
4.97177e-24
1.88118e-17
2.64542e-24
7.28764e-24
1.88118e-17
2.77448e-24
9.15013e-24
1.88118e-17
2.95822e-24
1.05599e-23
1.88118e-17
3.16699e-24
1.15518e-23
1.88118e-17
3.38364e-24
1.21821e-23
1.88118e-17
3.6026e-24
1.2518e-23
1.88118e-17
3.83479e-24
1.25938e-23
1.88119e-17
4.06092e-24
1.24953e-23
1.88119e-17
4.264e-24
1.22687e-23
1.88119e-17
4.44227e-24
1.1955e-23
1.88119e-17
4.59046e-24
1.15916e-23
1.88119e-17
4.70569e-24
1.11958e-23
1.88119e-17
4.78725e-24
1.07768e-23
1.88119e-17
4.83607e-24
1.0346e-23
1.88119e-17
4.85771e-24
9.90369e-24
1.88119e-17
4.8543e-24
9.45214e-24
1.88119e-17
4.82395e-24
9.00557e-24
1.88119e-17
4.77111e-24
8.56813e-24
1.88119e-17
4.69797e-24
8.13796e-24
1.88119e-17
4.60659e-24
7.71618e-24
1.88119e-17
4.49838e-24
7.30302e-24
1.88119e-17
4.37568e-24
6.90164e-24
1.8812e-17
4.24092e-24
6.51352e-24
1.8812e-17
4.0967e-24
6.13758e-24
1.8812e-17
3.94508e-24
5.77215e-24
1.8812e-17
3.78816e-24
5.41796e-24
1.8812e-17
3.62718e-24
5.0746e-24
1.8812e-17
3.46449e-24
4.74189e-24
1.8812e-17
3.30085e-24
4.42054e-24
1.8812e-17
3.13794e-24
4.11129e-24
1.8812e-17
2.97674e-24
3.81335e-24
1.8812e-17
2.81762e-24
3.52664e-24
1.8812e-17
2.66111e-24
3.25025e-24
1.8812e-17
2.50831e-24
2.98474e-24
1.8812e-17
2.35937e-24
2.72998e-24
1.8812e-17
2.21456e-24
2.48756e-24
1.8812e-17
2.0742e-24
2.25565e-24
1.8812e-17
1.93961e-24
2.03165e-24
1.8812e-17
1.80957e-24
1.81934e-24
1.8812e-17
1.68432e-24
1.61949e-24
1.8812e-17
1.56451e-24
1.42841e-24
1.8812e-17
1.44936e-24
1.24776e-24
1.8812e-17
1.33851e-24
1.07771e-24
1.8812e-17
1.2324e-24
9.17859e-25
1.8812e-17
1.13027e-24
7.66386e-25
1.8812e-17
1.03236e-24
6.24378e-25
1.8812e-17
9.38464e-25
4.91119e-25
1.8812e-17
8.48872e-25
3.66802e-25
1.8812e-17
7.63688e-25
2.51654e-25
1.8812e-17
6.84865e-25
1.48502e-25
1.8812e-17
6.1525e-25
5.97747e-26
1.8812e-17
5.58404e-25
-1.25552e-26
1.8812e-17
5.17343e-25
-6.673e-26
1.8812e-17
4.96363e-25
-9.87108e-26
1.8812e-17
4.99979e-25
-1.07309e-25
1.8812e-17
5.33379e-25
-9.19417e-26
1.8812e-17
6.00333e-25
-5.79559e-26
1.8812e-17
7.0063e-25
-1.05559e-26
1.8812e-17
8.29292e-25
3.88215e-26
1.8812e-17
9.73311e-25
7.36966e-26
1.8812e-17
1.11138e-24
6.68531e-26
1.8812e-17
1.21434e-24
-2.52033e-26
1.8812e-17
1.24858e-24
-2.28511e-25
1.8812e-17
1.18025e-24
-4.90396e-25
1.8812e-17
1.02371e-24
-7.63023e-25
1.8812e-17
7.78876e-25
-1.17042e-24
1.8812e-17
5.45886e-25
-1.38851e-24
1.8812e-17
5.24753e-25
3.60001e-25
1.8812e-17
9.3288e-25
4.00233e-24
1.8812e-17
2.04215e-24
4.48923e-24
1.8812e-17
4.55011e-24
1.82337e-23
1.8812e-17
8.20238e-24
5.66557e-23
1.8812e-17
1.10727e-23
2.31168e-23
1.88119e-17
1.71544e-23
1.20608e-22
1.53032e-23
2.07725e-22
1.94662e-17
2.73523e-22
1.23472e-19
1.94982e-17
-1.08618e-23
-2.98477e-20
1.94912e-17
-5.42118e-23
7.85984e-21
1.94927e-17
-2.23198e-23
-1.77234e-21
1.94989e-17
3.01745e-24
-6.71519e-21
1.94995e-17
3.06653e-23
-1.16839e-21
1.94999e-17
4.64004e-23
-8.89186e-22
1.95007e-17
4.77996e-23
-1.09379e-21
1.9501e-17
4.36677e-23
-4.96622e-22
1.95011e-17
3.6327e-23
-1.85292e-22
1.95011e-17
2.81727e-23
-1.32559e-22
1.95012e-17
2.04495e-23
-9.33599e-23
1.95012e-17
1.40911e-23
-5.26855e-23
1.95013e-17
8.39941e-24
-3.32169e-23
1.95013e-17
4.07935e-24
-2.8718e-23
1.95013e-17
1.21011e-24
-2.69147e-23
1.95014e-17
-6.20512e-25
-2.4443e-23
1.95014e-17
-1.677e-24
-2.15221e-23
1.95014e-17
-2.19763e-24
-1.81931e-23
1.95014e-17
-2.29238e-24
-1.43291e-23
1.95014e-17
-2.12455e-24
-1.01614e-23
1.95014e-17
-1.87153e-24
-5.95308e-24
1.95014e-17
-1.65298e-24
-1.93464e-24
1.95015e-17
-1.35166e-24
1.66648e-24
1.95015e-17
-9.87264e-25
4.70118e-24
1.95015e-17
-6.15181e-25
7.11852e-24
1.95015e-17
-2.72347e-25
9.04771e-24
1.95015e-17
3.63495e-26
1.04862e-23
1.95015e-17
3.06203e-25
1.1483e-23
1.95015e-17
5.35885e-25
1.21085e-23
1.95015e-17
7.3366e-25
1.24375e-23
1.95015e-17
9.06172e-25
1.25515e-23
1.95015e-17
1.05187e-24
1.25069e-23
1.95015e-17
1.16817e-24
1.23439e-23
1.95015e-17
1.26686e-24
1.20861e-23
1.95015e-17
1.35675e-24
1.17329e-23
1.95015e-17
1.42258e-24
1.13381e-23
1.95016e-17
1.46349e-24
1.09325e-23
1.95016e-17
1.4824e-24
1.05075e-23
1.95016e-17
1.49298e-24
1.00626e-23
1.95016e-17
1.49652e-24
9.61251e-24
1.95016e-17
1.49149e-24
9.16681e-24
1.95016e-17
1.47971e-24
8.72576e-24
1.95016e-17
1.46229e-24
8.29069e-24
1.95016e-17
1.43736e-24
7.86338e-24
1.95016e-17
1.40563e-24
7.44528e-24
1.95016e-17
1.36607e-24
7.0376e-24
1.95016e-17
1.32089e-24
6.64288e-24
1.95016e-17
1.27146e-24
6.25937e-24
1.95016e-17
1.21956e-24
5.88666e-24
1.95016e-17
1.166e-24
5.52433e-24
1.95016e-17
1.11011e-24
5.17361e-24
1.95017e-17
1.05442e-24
4.83388e-24
1.95017e-17
9.99263e-25
4.50547e-24
1.95017e-17
9.44178e-25
4.18883e-24
1.95017e-17
8.90112e-25
3.88478e-24
1.95017e-17
8.37207e-25
3.59126e-24
1.95017e-17
7.86179e-25
3.30873e-24
1.95017e-17
7.36931e-25
3.03714e-24
1.95017e-17
6.89497e-25
2.77736e-24
1.95017e-17
6.43556e-25
2.52851e-24
1.95017e-17
5.99614e-25
2.29111e-24
1.95017e-17
5.5784e-25
2.06513e-24
1.95017e-17
5.17795e-25
1.85077e-24
1.95017e-17
4.78812e-25
1.64693e-24
1.95017e-17
4.40547e-25
1.45518e-24
1.95017e-17
4.03375e-25
1.27254e-24
1.95017e-17
3.673e-25
1.10109e-24
1.95017e-17
3.31868e-25
9.40683e-25
1.95017e-17
2.98186e-25
7.88822e-25
1.95017e-17
2.65482e-25
6.45747e-25
1.95017e-17
2.3367e-25
5.12823e-25
1.95017e-17
2.02995e-25
3.88629e-25
1.95017e-17
1.74884e-25
2.73789e-25
1.95017e-17
1.50644e-25
1.69209e-25
1.95017e-17
1.32799e-25
8.0224e-26
1.95017e-17
1.24575e-25
7.81383e-27
1.95017e-17
1.32052e-25
-4.86438e-26
1.95017e-17
1.58701e-25
-8.54891e-26
1.95017e-17
2.09013e-25
-1.01581e-25
1.95017e-17
2.85127e-25
-8.97042e-26
1.95017e-17
3.96267e-25
-5.7525e-26
1.95017e-17
5.44752e-25
-1.10159e-26
1.95017e-17
7.30179e-25
3.88546e-26
1.95017e-17
9.43946e-25
7.21032e-26
1.95017e-17
1.16812e-24
6.37972e-26
1.95017e-17
1.37597e-24
-3.51888e-26
1.95017e-17
1.52885e-24
-2.57406e-25
1.95017e-17
1.56051e-24
-5.52275e-25
1.95017e-17
1.40458e-24
-8.52717e-25
1.95017e-17
9.9861e-25
-1.2838e-24
1.95017e-17
2.75274e-25
-1.55969e-24
1.95017e-17
-8.00555e-25
2.22518e-25
1.95017e-17
-2.24158e-24
3.9651e-24
1.95017e-17
-4.03407e-24
4.68056e-24
1.95017e-17
-6.11205e-24
1.93384e-23
1.95017e-17
-8.28772e-24
5.88968e-23
1.95017e-17
-1.00117e-23
2.39755e-23
1.95016e-17
-1.15897e-23
1.27404e-22
-1.1275e-23
2.11011e-22
1.94662e-17
-6.56102e-21
1.23541e-19
1.94982e-17
-1.93279e-21
-2.9923e-20
1.94912e-17
-7.03588e-22
7.8318e-21
1.94928e-17
3.61874e-22
-1.7511e-21
1.94989e-17
7.07852e-22
-6.70425e-21
1.94996e-17
6.42137e-22
-1.1647e-21
1.95e-17
5.29166e-22
-8.87211e-22
1.95008e-17
3.70399e-22
-1.09354e-21
1.95011e-17
2.20889e-22
-4.978e-22
1.95011e-17
1.18759e-22
-1.87429e-22
1.95012e-17
5.75937e-23
-1.34909e-22
1.95013e-17
1.90915e-23
-9.48027e-23
1.95013e-17
-2.72028e-24
-5.28465e-23
1.95013e-17
-1.36816e-23
-3.35578e-23
1.95014e-17
-1.7942e-23
-2.91846e-23
1.95014e-17
-1.84359e-23
-2.7415e-23
1.95014e-17
-1.70944e-23
-2.49812e-23
1.95015e-17
-1.49669e-23
-2.20646e-23
1.95015e-17
-1.27487e-23
-1.87011e-23
1.95015e-17
-1.06104e-23
-1.48245e-23
1.95015e-17
-8.72715e-24
-1.05829e-23
1.95015e-17
-7.20174e-24
-6.3358e-24
1.95015e-17
-5.99676e-24
-2.47805e-24
1.95015e-17
-5.03462e-24
1.1502e-24
1.95015e-17
-4.2337e-24
4.26517e-24
1.95015e-17
-3.59489e-24
6.73197e-24
1.95015e-17
-3.08184e-24
8.66165e-24
1.95016e-17
-2.67691e-24
1.00986e-23
1.95016e-17
-2.35957e-24
1.10966e-23
1.95016e-17
-2.11859e-24
1.17246e-23
1.95016e-17
-1.94336e-24
1.20595e-23
1.95016e-17
-1.83199e-24
1.21821e-23
1.95016e-17
-1.77199e-24
1.21521e-23
1.95016e-17
-1.74204e-24
1.19941e-23
1.95016e-17
-1.72894e-24
1.17435e-23
1.95016e-17
-1.72119e-24
1.14229e-23
1.95016e-17
-1.71839e-24
1.10498e-23
1.95016e-17
-1.7215e-24
1.06428e-23
1.95016e-17
-1.72581e-24
1.021e-23
1.95016e-17
-1.7218e-24
9.76579e-24
1.95016e-17
-1.71274e-24
9.32462e-24
1.95017e-17
-1.69846e-24
8.88983e-24
1.95017e-17
-1.67606e-24
8.46034e-24
1.95017e-17
-1.64596e-24
8.03797e-24
1.95017e-17
-1.6119e-24
7.62367e-24
1.95017e-17
-1.57446e-24
7.21769e-24
1.95017e-17
-1.53611e-24
6.81976e-24
1.95017e-17
-1.49586e-24
6.43298e-24
1.95017e-17
-1.45414e-24
6.05766e-24
1.95017e-17
-1.40996e-24
5.69326e-24
1.95017e-17
-1.36401e-24
5.34022e-24
1.95017e-17
-1.31718e-24
4.99606e-24
1.95017e-17
-1.2681e-24
4.66421e-24
1.95017e-17
-1.21712e-24
4.34346e-24
1.95017e-17
-1.16551e-24
4.03312e-24
1.95017e-17
-1.11345e-24
3.73446e-24
1.95017e-17
-1.06146e-24
3.447e-24
1.95017e-17
-1.00921e-24
3.17126e-24
1.95017e-17
-9.57596e-25
2.90728e-24
1.95018e-17
-9.06832e-25
2.65524e-24
1.95018e-17
-8.56961e-25
2.41398e-24
1.95018e-17
-8.07638e-25
2.18356e-24
1.95018e-17
-7.59632e-25
1.96506e-24
1.95018e-17
-7.12941e-25
1.7574e-24
1.95018e-17
-6.68914e-25
1.56054e-24
1.95018e-17
-6.2936e-25
1.37626e-24
1.95018e-17
-5.9222e-25
1.20187e-24
1.95018e-17
-5.56231e-25
1.03628e-24
1.95018e-17
-5.22467e-25
8.79651e-25
1.95018e-17
-4.90716e-25
7.33573e-25
1.95018e-17
-4.61305e-25
5.96678e-25
1.95018e-17
-4.33833e-25
4.68836e-25
1.95018e-17
-4.07722e-25
3.48756e-25
1.95018e-17
-3.81254e-25
2.37462e-25
1.95018e-17
-3.53542e-25
1.36307e-25
1.95018e-17
-3.23567e-25
5.05962e-26
1.95018e-17
-2.88523e-25
-1.94927e-26
1.95018e-17
-2.42944e-25
-7.04151e-26
1.95018e-17
-1.81021e-25
-1.03247e-25
1.95018e-17
-9.73174e-26
-1.15501e-25
1.95018e-17
1.15556e-26
-1.08644e-25
1.95018e-17
1.52503e-25
-7.98761e-26
1.95018e-17
3.2993e-25
-3.37615e-26
1.95018e-17
5.49056e-25
1.82887e-26
1.95018e-17
8.08516e-25
5.85823e-26
1.95018e-17
1.09639e-24
6.17367e-26
1.95018e-17
1.38996e-24
-1.0335e-26
1.95018e-17
1.65188e-24
-1.97375e-25
1.95018e-17
1.80048e-24
-4.52009e-25
1.95018e-17
1.69911e-24
-7.17508e-25
1.95018e-17
1.22018e-24
-1.11282e-24
1.95018e-17
1.36086e-25
-1.35035e-24
1.95018e-17
-1.83839e-24
4.57421e-25
1.95018e-17
-4.91257e-24
4.16287e-24
1.95018e-17
-9.33554e-24
4.81053e-24
1.95018e-17
-1.57499e-23
1.93132e-23
1.95017e-17
-2.35242e-23
5.86637e-23
1.95017e-17
-2.984e-23
2.38478e-23
1.95016e-17
-3.91089e-23
1.26368e-22
-3.67604e-23
2.10817e-22
1.87783e-17
-1.3695e-20
1.22161e-19
1.88088e-17
-3.77671e-21
-2.85412e-20
1.88016e-17
-1.59864e-21
8.34397e-21
1.88029e-17
7.67876e-22
-1.58329e-21
1.8809e-17
1.32799e-21
-6.5591e-21
1.88097e-17
1.07596e-21
-1.07866e-21
1.88102e-17
8.78931e-22
-8.3179e-22
1.88111e-17
6.1523e-22
-1.0829e-21
1.88114e-17
3.50939e-22
-5.16507e-22
1.88116e-17
1.75088e-22
-2.07979e-22
1.88117e-17
7.57415e-23
-1.50401e-22
1.88117e-17
1.58826e-23
-1.06381e-22
1.88118e-17
-1.69523e-23
-6.18552e-23
1.88118e-17
-3.08777e-23
-4.13804e-23
1.88119e-17
-3.45452e-23
-3.42203e-23
1.88119e-17
-3.31359e-23
-3.06682e-23
1.88119e-17
-2.93368e-23
-2.73006e-23
1.88119e-17
-2.47194e-23
-2.37557e-23
1.88119e-17
-2.03338e-23
-1.99855e-23
1.8812e-17
-1.65372e-23
-1.58425e-23
1.8812e-17
-1.34485e-23
-1.14161e-23
1.8812e-17
-1.0973e-23
-7.04562e-24
1.8812e-17
-8.87992e-24
-3.23493e-24
1.8812e-17
-7.31842e-24
2.54188e-25
1.8812e-17
-6.20459e-24
3.35611e-24
1.8812e-17
-5.42142e-24
5.8733e-24
1.8812e-17
-4.84464e-24
7.86417e-24
1.8812e-17
-4.43027e-24
9.36368e-24
1.8812e-17
-4.14153e-24
1.04217e-23
1.8812e-17
-3.95436e-24
1.11045e-23
1.8812e-17
-3.84973e-24
1.14886e-23
1.8812e-17
-3.81114e-24
1.16272e-23
1.88121e-17
-3.82563e-24
1.15881e-23
1.88121e-17
-3.87057e-24
1.14221e-23
1.88121e-17
-3.92864e-24
1.11652e-23
1.88121e-17
-3.9836e-24
1.08402e-23
1.88121e-17
-4.02944e-24
1.04727e-23
1.88121e-17
-4.06299e-24
1.00598e-23
1.88121e-17
-4.07818e-24
9.61797e-24
1.88121e-17
-4.07728e-24
9.16788e-24
1.88121e-17
-4.05861e-24
8.72207e-24
1.88121e-17
-4.02352e-24
8.28346e-24
1.88121e-17
-3.97268e-24
7.85942e-24
1.88121e-17
-3.90995e-24
7.45138e-24
1.88121e-17
-3.83474e-24
7.05433e-24
1.88121e-17
-3.7505e-24
6.66746e-24
1.88121e-17
-3.65797e-24
6.28993e-24
1.88121e-17
-3.55851e-24
5.92179e-24
1.88122e-17
-3.45207e-24
5.56652e-24
1.88122e-17
-3.34063e-24
5.2223e-24
1.88122e-17
-3.22523e-24
4.89094e-24
1.88122e-17
-3.1047e-24
4.56832e-24
1.88122e-17
-2.98183e-24
4.26159e-24
1.88122e-17
-2.85816e-24
3.96501e-24
1.88122e-17
-2.73275e-24
3.67963e-24
1.88122e-17
-2.60738e-24
3.40416e-24
1.88122e-17
-2.48181e-24
3.14015e-24
1.88122e-17
-2.35747e-24
2.88666e-24
1.88122e-17
-2.23479e-24
2.64502e-24
1.88122e-17
-2.11525e-24
2.41322e-24
1.88122e-17
-1.99804e-24
2.19341e-24
1.88122e-17
-1.88392e-24
1.98309e-24
1.88122e-17
-1.77313e-24
1.78478e-24
1.88122e-17
-1.66666e-24
1.59636e-24
1.88122e-17
-1.56343e-24
1.41768e-24
1.88122e-17
-1.46377e-24
1.24143e-24
1.88122e-17
-1.36725e-24
1.0757e-24
1.88122e-17
-1.2751e-24
9.19758e-25
1.88122e-17
-1.18658e-24
7.72751e-25
1.88122e-17
-1.1027e-24
6.3312e-25
1.88122e-17
-1.02255e-24
5.02801e-25
1.88122e-17
-9.46441e-25
3.78798e-25
1.88122e-17
-8.7273e-25
2.62891e-25
1.88122e-17
-8.02186e-25
1.55606e-25
1.88122e-17
-7.33502e-25
6.02017e-26
1.88122e-17
-6.66552e-25
-2.37776e-26
1.88122e-17
-5.98394e-25
-9.0985e-26
1.88122e-17
-5.27578e-25
-1.3954e-25
1.88122e-17
-4.49448e-25
-1.64554e-25
1.88122e-17
-3.566e-25
-1.68215e-25
1.88122e-17
-2.41122e-25
-1.56471e-25
1.88122e-17
-9.86563e-26
-1.26378e-25
1.88122e-17
8.0404e-26
-8.23797e-26
1.88122e-17
2.99636e-25
-2.88585e-26
1.88122e-17
5.63264e-25
2.31439e-26
1.88122e-17
8.66111e-25
4.93168e-26
1.88122e-17
1.1937e-24
2.70203e-26
1.88122e-17
1.5128e-24
-7.01893e-26
1.88122e-17
1.73515e-24
-1.97829e-25
1.88122e-17
1.7021e-24
-3.27232e-25
1.88122e-17
1.25218e-24
-5.73635e-25
1.88122e-17
4.6606e-26
-5.82728e-25
1.88122e-17
-2.38373e-24
1.34204e-24
1.88122e-17
-6.43111e-24
5.06172e-24
1.88122e-17
-1.23667e-23
5.56724e-24
1.88122e-17
-2.14521e-23
1.89859e-23
1.88122e-17
-3.34143e-23
5.66814e-23
1.88122e-17
-4.35181e-23
2.31839e-23
1.88121e-17
-5.92717e-23
1.17586e-22
-5.62093e-23
2.06488e-22
1.73301e-17
-2.0851e-20
1.16622e-19
1.73576e-17
-3.60505e-21
-2.74841e-20
1.735e-17
-3.31262e-21
9.51527e-21
1.73507e-17
7.81566e-22
-5.58371e-22
1.73566e-17
1.73661e-21