/*--------------------------------*- C++ -*----------------------------------*\
| =========                 |                                                 |
| \\      /  F ield         | OpenFOAM: The Open Source CFD Toolbox           |
|  \\    /   O peration     | Version:  2412                                  |
|   \\  /    A nd           | Website:  www.openfoam.com                      |
|    \\/     M anipulation  |                                                 |
\*---------------------------------------------------------------------------*/
FoamFile
{
    version     2.0;
    format      ascii;
    arch        "LSB;label=32;scalar=64";
    class       surfaceScalarField;
    location    "5e-05";
    object      phi;
}
// * * * * * * * * * * * * * * * * * * * * * * * * * * * * * * * * * * * * * //

dimensions      [0 3 -1 0 0 0 0];

oriented        oriented;

internalField   nonuniform List<scalar> 
284064
(
2.60049e-20
1.10092e-23
1.09643e-23
2.60763e-20
-3.58066e-23
-3.58049e-23
2.60276e-20
2.43261e-23
2.43281e-23
2.60828e-20
-2.76907e-23
-2.76891e-23
2.60274e-20
2.76463e-23
2.76487e-23
2.6082e-20
-2.73653e-23
-2.73587e-23
2.60263e-20
2.77686e-23
2.77765e-23
2.6082e-20
-2.78841e-23
-2.78755e-23
2.60251e-20
2.83441e-23
2.83511e-23
2.60826e-20
-2.87839e-23
-2.8777e-23
2.60233e-20
2.95589e-23
2.9563e-23
2.60848e-20
-3.07461e-23
-3.0741e-23
2.60199e-20
3.23842e-23
3.23872e-23
2.60897e-20
-3.48777e-23
-3.48739e-23
2.60132e-20
3.82217e-23
3.82228e-23
2.6098e-20
-4.23921e-23
-4.23927e-23
2.60036e-20
4.72284e-23
4.7224e-23
2.61074e-20
-5.183e-23
-5.1831e-23
2.59958e-20
5.57932e-23
5.57938e-23
2.61108e-20
-5.73681e-23
-5.73666e-23
2.59981e-20
5.63577e-23
5.63568e-23
2.6102e-20
-5.18158e-23
-5.18175e-23
2.60122e-20
4.49569e-23
4.49552e-23
2.60845e-20
-3.60467e-23
-3.60492e-23
2.60304e-20
2.71027e-23
2.71008e-23
2.60677e-20
-1.85881e-23
-1.85906e-23
2.6044e-20
1.19707e-23
1.19688e-23
2.60578e-20
-6.8954e-24
-6.89874e-24
2.60504e-20
3.8053e-24
3.80431e-24
2.60541e-20
-1.80389e-24
-1.80579e-24
2.60523e-20
9.22046e-25
9.21346e-25
2.60531e-20
-3.90362e-25
-3.91647e-25
2.60526e-20
2.90833e-25
2.90896e-25
2.6053e-20
-2.01353e-25
-2.01359e-25
2.60526e-20
2.46137e-25
2.46718e-25
2.60531e-20
-2.566e-25
-2.57207e-25
2.60525e-20
3.03764e-25
3.03862e-25
2.60532e-20
-3.45542e-25
-3.4619e-25
2.60525e-20
3.77089e-25
3.7744e-25
2.60533e-20
-4.68665e-25
-4.68288e-25
2.60524e-20
4.6959e-25
4.71862e-25
2.60535e-20
-6.31778e-25
-6.31071e-25
2.60523e-20
6.01627e-25
6.03761e-25
2.60538e-20
-8.43239e-25
-8.42876e-25
2.60521e-20
8.17733e-25
8.18898e-25
2.60541e-20
-1.03614e-24
-1.03569e-24
2.60509e-20
1.49682e-24
1.49715e-24
2.60511e-20
-1.23747e-25
-1.25513e-25
2.60397e-20
5.61006e-24
5.61234e-24
9.62132e-24
9.57534e-24
5.91491e-20
-1.35651e-23
2.85194e-23
5.92513e-20
-5.60463e-23
-8.23744e-23
5.92054e-20
1.67433e-23
5.32e-23
5.9267e-20
-2.88469e-23
-6.0891e-23
5.92065e-20
2.7386e-23
6.04053e-23
5.9265e-20
-2.64466e-23
-5.97742e-23
5.92046e-20
2.67216e-23
6.1003e-23
5.92641e-20
-2.6386e-23
-6.12572e-23
5.92029e-20
2.63321e-23
6.27043e-23
5.92639e-20
-2.59934e-23
-6.39472e-23
5.92011e-20
2.57044e-23
6.62239e-23
5.92656e-20
-2.6112e-23
-6.91737e-23
5.91979e-20
2.64308e-23
7.32593e-23
5.92703e-20
-2.84028e-23
-7.8794e-23
5.91908e-20
3.19696e-23
8.55691e-23
5.92796e-20
-3.58611e-23
-9.5115e-23
5.91793e-20
4.13017e-23
1.06222e-22
5.92913e-20
-4.64933e-23
-1.16934e-22
5.91686e-20
5.51987e-23
1.23416e-22
5.92971e-20
-6.20603e-23
-1.23259e-22
5.91692e-20
6.84641e-23
1.16044e-22
5.92885e-20
-6.83804e-23
-1.02173e-22
5.91843e-20
6.47894e-23
8.47695e-23
5.92688e-20
-5.5092e-23
-6.49246e-23
5.92053e-20
4.47704e-23
4.62854e-23
5.92492e-20
-3.22135e-23
-2.98924e-23
5.92212e-20
2.23779e-23
1.80489e-23
5.92375e-20
-1.34032e-23
-9.50822e-24
5.92288e-20
8.06298e-24
4.8905e-24
5.92331e-20
-3.84918e-24
-2.01781e-24
5.92311e-20
2.20534e-24
1.05181e-24
5.9232e-20
-8.30843e-25
-3.75822e-25
5.92314e-20
6.5183e-25
4.53764e-25
5.92318e-20
-2.9292e-25
-3.40278e-25
5.92314e-20
3.90392e-25
5.04329e-25
5.92319e-20
-3.23487e-25
-5.28347e-25
5.92313e-20
4.02833e-25
6.36266e-25
5.9232e-20
-4.58161e-25
-7.13492e-25
5.92312e-20
4.53023e-25
7.73238e-25
5.92322e-20
-6.80807e-25
-9.54251e-25
5.92311e-20
5.12613e-25
9.38085e-25
5.92325e-20
-9.79604e-25
-1.27032e-24
5.92311e-20
6.18817e-25
1.17946e-24
5.9233e-20
-1.35006e-24
-1.66794e-24
5.9231e-20
8.77218e-25
1.62699e-24
5.92331e-20
-1.60733e-24
-1.94762e-24
5.92285e-20
2.61921e-24
3.16921e-24
5.92264e-20
1.50145e-24
1.11837e-25
5.92024e-20
1.63547e-23
1.27888e-23
2.29329e-23
1.96085e-23
8.37566e-20
-3.73247e-23
1.27785e-23
8.38779e-20
-8.10497e-23
-9.67197e-23
8.3838e-20
1.20831e-24
5.51675e-23
8.39013e-20
-2.58708e-23
-6.66755e-23
8.38404e-20
2.15589e-23
6.63371e-23
8.38985e-20
-1.96216e-23
-6.53226e-23
8.38379e-20
2.00655e-23
6.68532e-23
8.38969e-20
-1.85712e-23
-6.71644e-23
8.38358e-20
1.81693e-23
6.89164e-23
8.38962e-20
-1.64063e-23
-7.02427e-23
8.38337e-20
1.48741e-23
7.29598e-23
8.38977e-20
-1.34791e-23
-7.67628e-23
8.38303e-20
1.14244e-23
8.20922e-23
8.39028e-20
-1.09416e-23
-8.98801e-23
8.38226e-20
1.21015e-23
9.99304e-23
8.39129e-20
-1.5084e-23
-1.10848e-22
8.381e-20
2.1273e-23
1.22852e-22
8.39253e-20
-2.86359e-23
-1.32758e-22
8.37988e-20
4.18143e-23
1.40025e-22
8.39309e-20
-5.34815e-23
-1.40184e-22
8.38001e-20
6.58259e-23
1.33768e-22
8.39211e-20
-7.04874e-23
-1.18434e-22
8.38166e-20
7.11079e-23
9.86965e-23
8.39002e-20
-6.2931e-23
-7.53491e-23
8.38384e-20
5.32138e-23
5.38923e-23
8.38804e-20
-3.9191e-23
-3.46261e-23
8.38542e-20
2.80301e-23
2.09936e-23
8.38691e-20
-1.6908e-23
-1.10645e-23
8.38613e-20
1.05028e-23
5.7015e-24
8.3865e-20
-4.96386e-24
-2.31584e-24
8.38633e-20
2.97476e-24
1.23387e-24
8.3864e-20
-1.03884e-24
-4.31797e-25
8.38635e-20
8.47241e-25
5.6262e-25
8.38639e-20
-2.96955e-25
-3.95746e-25
8.38634e-20
4.30815e-25
6.12653e-25
8.3864e-20
-2.93016e-25
-6.21323e-25
8.38633e-20
3.94638e-25
7.50264e-25
8.3864e-20
-4.39812e-25
-8.4665e-25
8.38633e-20
4.03068e-25
8.89526e-25
8.38643e-20
-7.08681e-25
-1.15311e-24
8.38633e-20
4.09649e-25
1.0513e-24
8.38646e-20
-1.07813e-24
-1.55176e-24
8.38634e-20
4.72286e-25
1.28741e-24
8.38652e-20
-1.52209e-24
-2.04616e-24
8.38633e-20
7.91636e-25
1.76509e-24
8.38653e-20
-1.66983e-24
-2.37212e-24
8.38598e-20
3.9735e-24
3.79313e-24
8.38559e-20
4.4924e-24
5.48943e-25
8.38242e-20
3.0289e-23
1.7354e-23
3.65398e-23
2.59385e-23
1.03376e-19
-6.22411e-23
3.4218e-24
1.03511e-19
-1.12738e-22
-1.04306e-22
1.03476e-19
-1.42965e-23
5.01221e-23
1.03541e-19
-2.6143e-23
-6.49104e-23
1.0348e-19
1.90229e-23
6.33275e-23
1.03538e-19
-1.58364e-23
-6.21273e-23
1.03477e-19
1.71764e-23
6.33817e-23
1.03536e-19
-1.45086e-23
-6.32039e-23
1.03474e-19
1.45331e-23
6.459e-23
1.03535e-19
-1.17735e-23
-6.50525e-23
1.03472e-19
1.00181e-23
6.70049e-23
1.03536e-19
-7.28769e-24
-7.02359e-23
1.03469e-19
3.50995e-24
7.5094e-23
1.03541e-19
-9.31108e-25
-8.27467e-23
1.0346e-19
-1.76611e-25
9.30781e-23
1.03552e-19
-1.62476e-24
-1.04728e-22
1.03447e-19
7.70307e-24
1.18143e-22
1.03565e-19
-1.55819e-23
-1.29993e-22
1.03436e-19
3.05958e-23
1.4003e-22
1.0357e-19
-4.4236e-23
-1.42752e-22
1.03438e-19
5.95735e-23
1.38754e-22
1.03559e-19
-6.70715e-23
-1.24584e-22
1.03455e-19
7.08123e-23
1.05137e-22
1.03538e-19
-6.43985e-23
-8.09411e-23
1.03477e-19
5.58454e-23
5.85505e-23
1.03518e-19
-4.15684e-23
-3.80221e-23
1.03493e-19
3.02497e-23
2.33554e-23
1.03507e-19
-1.82588e-23
-1.24057e-23
1.035e-19
1.15434e-23
6.54979e-24
1.03503e-19
-5.43655e-24
-2.62225e-24
1.03502e-19
3.33689e-24
1.46689e-24
1.03502e-19
-1.10465e-24
-4.8254e-25
1.03502e-19
9.38055e-25
6.3786e-25
1.03502e-19
-2.66735e-25
-4.11416e-25
1.03502e-19
4.34218e-25
6.51849e-25
1.03502e-19
-2.4051e-25
-6.384e-25
1.03501e-19
3.73312e-25
7.67543e-25
1.03502e-19
-3.9716e-25
-8.69362e-25
1.03501e-19
3.49556e-25
8.85563e-25
1.03502e-19
-7.01505e-25
-1.19623e-24
1.03501e-19
2.98766e-25
1.03501e-24
1.03503e-19
-1.12036e-24
-1.62936e-24
1.03502e-19
3.22328e-25
1.24904e-24
1.03504e-19
-1.60836e-24
-2.16252e-24
1.03502e-19
7.26265e-25
1.73906e-24
1.03504e-19
-1.57102e-24
-2.47166e-24
1.03497e-19
5.56245e-24
4.13477e-24
1.03492e-19
7.91952e-24
1.41725e-24
1.03456e-19
4.55965e-23
2.09104e-23
4.94613e-23
3.0696e-23
1.19563e-19
-9.5095e-23
3.74448e-24
1.1971e-19
-1.43894e-22
-1.15633e-22
1.19679e-19
-3.10691e-23
4.72249e-23
1.19745e-19
-2.45818e-23
-6.79334e-23
1.19684e-19
1.51454e-23
6.48321e-23
1.19742e-19
-1.06771e-23
-6.3422e-23
1.1968e-19
1.3294e-23
6.46426e-23
1.19739e-19
-9.51133e-24
-6.40261e-23
1.19678e-19
1.04919e-23
6.52461e-23
1.19738e-19
-6.78825e-24
-6.5349e-23
1.19675e-19
5.46287e-24
6.69166e-23
1.19739e-19
-2.20213e-24
-6.93047e-23
1.19671e-19
-1.93489e-24
7.29786e-23
1.19745e-19
5.13064e-24
-7.9336e-23
1.19663e-19
-7.13122e-24
8.85646e-23
1.19755e-19
6.38809e-24
-1.00336e-22
1.19649e-19
-3.76365e-25
1.13957e-22
1.19768e-19
-7.5392e-24
-1.26344e-22
1.19638e-19
2.2721e-23
1.37986e-22
1.19773e-19
-3.70306e-23
-1.41703e-22
1.1964e-19
5.36709e-23
1.38957e-22
1.19762e-19
-6.24965e-23
-1.25795e-22
1.19658e-19
6.80232e-23
1.07216e-22
1.1974e-19
-6.28069e-23
-8.32993e-23
1.1968e-19
5.53088e-23
6.08797e-23
1.1972e-19
-4.13744e-23
-3.98044e-23
1.19696e-19
3.04789e-23
2.46836e-23
1.1971e-19
-1.84409e-23
-1.30963e-23
1.19703e-19
1.17666e-23
7.05326e-24
1.19706e-19
-5.53109e-24
-2.81473e-24
1.19704e-19
3.45248e-24
1.61853e-24
1.19705e-19
-1.10089e-24
-5.02001e-25
1.19704e-19
9.81874e-25
6.69427e-25
1.19705e-19
-2.34072e-25
-4.01964e-25
1.19704e-19
4.37843e-25
6.53049e-25
1.19705e-19
-1.96023e-25
-6.25849e-25
1.19704e-19
3.60886e-25
7.62478e-25
1.19705e-19
-3.6128e-25
-8.60066e-25
1.19704e-19
3.07368e-25
8.69618e-25
1.19705e-19
-6.98131e-25
-1.19768e-24
1.19704e-19
1.93499e-25
1.0121e-24
1.19706e-19
-1.15734e-24
-1.65002e-24
1.19704e-19
1.65946e-25
1.22445e-24
1.19706e-19
-1.67377e-24
-2.20637e-24
1.19704e-19
6.63572e-25
1.72939e-24
1.19706e-19
-1.41589e-24
-2.48906e-24
1.197e-19
7.21767e-24
4.43485e-24
1.19694e-19
1.13875e-23
2.28192e-24
1.19654e-19
6.10942e-23
2.38662e-23
6.13445e-23
3.42187e-23
1.33165e-19
-1.20737e-22
-9.00726e-24
1.3332e-19
-1.76397e-22
-1.2224e-22
1.33292e-19
-4.50765e-23
4.11087e-23
1.33359e-19
-2.35916e-23
-6.82328e-23
1.33298e-19
1.18235e-23
6.4269e-23
1.33356e-19
-5.81137e-24
-6.30284e-23
1.33294e-19
9.55168e-24
6.46616e-23
1.33353e-19
-4.51252e-24
-6.39001e-23
1.33291e-19
6.45053e-24
6.54219e-23
1.33351e-19
-1.71257e-24
-6.5393e-23
1.33288e-19
1.02338e-24
6.70016e-23
1.33353e-19
2.55136e-24
-6.91751e-23
1.33284e-19
-6.5569e-24
7.25316e-23
1.33358e-19
9.70995e-24
-7.83947e-23
1.33276e-19
-1.18748e-23
8.70873e-23
1.33369e-19
1.16438e-23
-9.84542e-23
1.33262e-19
-5.46664e-24
1.11928e-22
1.33382e-19
-2.42379e-24
-1.24317e-22
1.33251e-19
1.71557e-23
1.36423e-22
1.33387e-19
-3.16147e-23
-1.4037e-22
1.33254e-19
4.87579e-23
1.38082e-22
1.33375e-19
-5.79828e-23
-1.25532e-22
1.33272e-19
6.43528e-23
1.07639e-22
1.33353e-19
-5.98726e-23
-8.40783e-23
1.33294e-19
5.32399e-23
6.18217e-23
1.33333e-19
-3.99591e-23
-4.05193e-23
1.33309e-19
2.96985e-23
2.52902e-23
1.33323e-19
-1.8004e-23
-1.34414e-23
1.33316e-19
1.15831e-23
7.28441e-24
1.33319e-19
-5.42491e-24
-2.9151e-24
1.33318e-19
3.44396e-24
1.69144e-24
1.33318e-19
-1.05734e-24
-5.15083e-25
1.33318e-19
9.96629e-25
6.90807e-25
1.33318e-19
-2.01429e-25
-3.93906e-25
1.33318e-19
4.40292e-25
6.5509e-25
1.33318e-19
-1.56956e-25
-6.16711e-25
1.33317e-19
3.50588e-25
7.64443e-25
1.33318e-19
-3.27816e-25
-8.54461e-25
1.33317e-19
2.69399e-25
8.63225e-25
1.33318e-19
-6.89869e-25
-1.20596e-24
1.33317e-19
8.74779e-26
1.00161e-24
1.33319e-19
-1.18137e-24
-1.67341e-24
1.33318e-19
1.12853e-26
1.20074e-24
1.3332e-19
-1.7129e-24
-2.24932e-24
1.33318e-19
6.13825e-25
1.70904e-24
1.3332e-19
-1.23141e-24
-2.4988e-24
1.33313e-19
8.86117e-24
4.64743e-24
1.33306e-19
1.48111e-23
2.89524e-24
1.33265e-19
7.5861e-23
2.65272e-23
7.17285e-23
3.71487e-23
1.44714e-19
-1.41134e-22
-1.78897e-23
1.44874e-19
-2.09298e-22
-1.27521e-22
1.44849e-19
-5.75709e-23
3.71179e-23
1.44916e-19
-2.441e-23
-6.71354e-23
1.44855e-19
1.01663e-23
6.25432e-23
1.44913e-19
-2.48188e-24
-6.14502e-23
1.44851e-19
7.2972e-24
6.33108e-23
1.4491e-19
-9.23064e-25
-6.24186e-23
1.44848e-19
3.74346e-24
6.42521e-23
1.44908e-19
2.09815e-24
-6.41338e-23
1.44845e-19
-2.14717e-24
6.59453e-23
1.4491e-19
6.04815e-24
-6.81418e-23
1.44841e-19
-9.86895e-24
7.15831e-23
1.44915e-19
1.28451e-23
-7.74359e-23
1.44832e-19
-1.4961e-23
8.60247e-23
1.44926e-19
1.49545e-23
-9.71637e-23
1.44819e-19
-8.90152e-24
1.10912e-22
1.44939e-19
1.0789e-24
-1.23237e-22
1.44808e-19
1.31882e-23
1.35168e-22
1.44943e-19
-2.7392e-23
-1.39276e-22
1.44811e-19
4.45383e-23
1.37251e-22
1.44932e-19
-5.36799e-23
-1.25014e-22
1.44829e-19
6.03517e-23
1.07545e-22
1.4491e-19
-5.63938e-23
-8.41985e-23
1.44851e-19
5.04866e-23
6.21094e-23
1.4489e-19
-3.79954e-23
-4.07613e-23
1.44866e-19
2.84197e-23
2.55591e-23
1.44879e-19
-1.72446e-23
-1.3621e-23
1.44873e-19
1.1174e-23
7.42018e-24
1.44876e-19
-5.20721e-24
-2.97817e-24
1.44874e-19
3.36281e-24
1.73828e-24
1.44875e-19
-9.88404e-25
-5.27551e-25
1.44875e-19
9.91638e-25
7.0672e-25
1.44875e-19
-1.65638e-25
-3.91561e-25
1.44874e-19
4.3971e-25
6.58265e-25
1.44875e-19
-1.19145e-25
-6.12237e-25
1.44874e-19
3.40464e-25
7.68046e-25
1.44875e-19
-2.94697e-25
-8.50357e-25
1.44874e-19
2.35218e-25
8.59129e-25
1.44875e-19
-6.73544e-25
-1.21512e-24
1.44874e-19
-8.90115e-27
9.8558e-25
1.44876e-19
-1.19379e-24
-1.69069e-24
1.44875e-19
-1.29786e-25
1.17292e-24
1.44877e-19
-1.73192e-24
-2.28015e-24
1.44875e-19
5.83267e-25
1.68129e-24
1.44877e-19
-1.03572e-24
-2.5078e-24
1.4487e-19
1.04012e-23
4.82066e-24
1.44863e-19
1.80532e-23
3.36016e-24
1.4482e-19
8.87673e-23
2.94582e-23
8.03083e-23
3.96516e-23
1.54579e-19
-1.58928e-22
-2.25693e-23
1.54742e-19
-2.39599e-22
-1.33837e-22
1.54719e-19
-6.92631e-23
3.4632e-23
1.54787e-19
-2.60111e-23
-6.69169e-23
1.54726e-19
8.99417e-24
6.19945e-23
1.54784e-19
-1.04896e-25
-6.05105e-23
1.54722e-19
6.13456e-24
6.23515e-23
1.54781e-19
1.52194e-24
-6.12715e-23
1.54719e-19
2.29884e-24
6.31634e-23
1.54779e-19
4.56922e-24
-6.28652e-23
1.54716e-19
-3.96953e-24
6.48334e-23
1.5478e-19
8.1159e-24
-6.69634e-23
1.54711e-19
-1.17285e-23
7.04808e-23
1.54786e-19
1.44879e-23
-7.63723e-23
1.54703e-19
-1.65244e-23
8.49643e-23
1.54797e-19
1.66074e-23
-9.5958e-23
1.54689e-19
-1.08765e-23
1.09829e-22
1.5481e-19
3.36314e-24
-1.22269e-22
1.54679e-19
1.03604e-23
1.34078e-22
1.54814e-19
-2.39939e-23
-1.38323e-22
1.54681e-19
4.07351e-23
1.36559e-22
1.54802e-19
-4.95373e-23
-1.24521e-22
1.547e-19
5.62213e-23
1.07311e-22
1.5478e-19
-5.27106e-23
-8.41023e-23
1.54722e-19
4.74446e-23
6.21483e-23
1.54761e-19
-3.57696e-23
-4.08588e-23
1.54737e-19
2.68895e-23
2.56965e-23
1.5475e-19
-1.63119e-23
-1.37365e-23
1.54744e-19
1.06406e-23
7.50776e-24
1.54747e-19
-4.92533e-24
-3.02579e-24
1.54745e-19
3.23425e-24
1.77422e-24
1.54746e-19
-9.05102e-25
-5.37582e-25
1.54745e-19
9.73267e-25
7.18073e-25
1.54746e-19
-1.27787e-25
-3.89644e-25
1.54745e-19
4.3664e-25
6.59834e-25
1.54746e-19
-8.3683e-26
-6.07237e-25
1.54745e-19
3.30848e-25
7.71032e-25
1.54746e-19
-2.65583e-25
-8.41839e-25
1.54745e-19
2.06592e-25
8.54467e-25
1.54746e-19
-6.52672e-25
-1.21873e-24
1.54745e-19
-8.1174e-26
9.59321e-25
1.54746e-19
-1.1975e-24
-1.70053e-24
1.54745e-19
-2.4844e-25
1.14284e-24
1.54747e-19
-1.73574e-24
-2.30065e-24
1.54745e-19
5.69859e-25
1.65359e-24
1.54747e-19
-8.31689e-25
-2.52951e-24
1.54741e-19
1.1753e-23
4.97584e-24
1.54734e-19
2.09484e-23
3.75465e-24
1.5469e-19
9.90955e-23
3.24861e-23
8.69085e-23
4.182e-23
1.63034e-19
-1.72514e-22
-2.75936e-23
1.632e-19
-2.65352e-22
-1.40394e-22
1.63178e-19
-7.98807e-23
3.25779e-23
1.63246e-19
-2.77389e-23
-6.71901e-23
1.63185e-19
7.78024e-24
6.19681e-23
1.63243e-19
1.90413e-24
-6.01833e-23
1.63181e-19
5.42988e-24
6.20087e-23
1.6324e-19
3.41489e-24
-6.07664e-23
1.63178e-19
1.52593e-24
6.26602e-23
1.63238e-19
6.19934e-24
-6.21429e-23
1.63174e-19
-4.93545e-24
6.42213e-23
1.63239e-19
9.16613e-24
-6.62079e-23
1.6317e-19
-1.25239e-23
6.97433e-23
1.63245e-19
1.49992e-23
-7.56086e-23
1.63161e-19
-1.69606e-23
8.41839e-23
1.63256e-19
1.70199e-23
-9.50135e-23
1.63148e-19
-1.17286e-23
1.08885e-22
1.63268e-19
4.75271e-24
-1.21419e-22
1.63137e-19
8.3425e-24
1.33125e-22
1.63273e-19
-2.12042e-23
-1.37456e-22
1.6314e-19
3.72012e-23
1.35952e-22
1.63261e-19
-4.55115e-23
-1.24086e-22
1.63159e-19
5.20457e-23
1.07065e-22
1.63239e-19
-4.89558e-23
-8.39768e-23
1.63181e-19
4.42815e-23
6.213e-23
1.6322e-19
-3.34093e-23
-4.0928e-23
1.63196e-19
2.52248e-23
2.5794e-23
1.63209e-19
-1.52803e-23
-1.38315e-23
1.63202e-19
1.00338e-23
7.57684e-24
1.63205e-19
-4.60587e-24
-3.0663e-24
1.63204e-19
3.07603e-24
1.80053e-24
1.63205e-19
-8.15681e-25
-5.44645e-25
1.63204e-19
9.4409e-25
7.2732e-25
1.63205e-19
-9.19212e-26
-3.85102e-25
1.63204e-19
4.30321e-25
6.61321e-25
1.63205e-19
-5.28817e-26
-6.00465e-25
1.63204e-19
3.20567e-25
7.74638e-25
1.63205e-19
-2.41823e-25
-8.31755e-25
1.63204e-19
1.82882e-25
8.51551e-25
1.63205e-19
-6.29006e-25
-1.21898e-24
1.63204e-19
-1.31145e-25
9.38678e-25
1.63205e-19
-1.18984e-24
-1.70904e-24
1.63204e-19
-3.41083e-25
1.11508e-24
1.63206e-19
-1.72093e-24
-2.31957e-24
1.63204e-19
5.69104e-25
1.62895e-24
1.63206e-19
-6.27785e-25
-2.55612e-24
1.632e-19
1.2857e-23
5.11115e-24
1.63193e-19
2.33656e-23
4.09073e-24
1.6315e-19
1.06623e-22
3.52819e-23
9.14298e-23
4.37292e-23
1.70292e-19
-1.81086e-22
-3.2338e-23
1.70458e-19
-2.85532e-22
-1.4653e-22
1.70436e-19
-8.91374e-23
3.08676e-23
1.70505e-19
-2.94182e-23
-6.74745e-23
1.70444e-19
6.69818e-24
6.17758e-23
1.70502e-19
3.61634e-24
-5.99504e-23
1.7044e-19
4.98074e-24
6.18488e-23
1.70499e-19
4.9315e-24
-6.0474e-23
1.70436e-19
1.05034e-24
6.25159e-23
1.70497e-19
7.31075e-24
-6.17692e-23
1.70433e-19
-5.42285e-24
6.39755e-23
1.70498e-19
9.5919e-24
-6.58361e-23
1.70429e-19
-1.26618e-23
6.93736e-23
1.70504e-19
1.47875e-23
-7.51854e-23
1.7042e-19
-1.66671e-23
8.36993e-23
1.70515e-19
1.66643e-23
-9.44167e-23
1.70407e-19
-1.17828e-23
1.08121e-22
1.70527e-19
5.47937e-24
-1.20663e-22
1.70397e-19
6.90925e-24
1.32282e-22
1.70531e-19
-1.88455e-23
-1.36705e-22
1.704e-19
3.38521e-23
1.35418e-22
1.7052e-19
-4.15755e-23
-1.23716e-22
1.70418e-19
4.78526e-23
1.0686e-22
1.70498e-19
-4.51651e-23
-8.38998e-23
1.7044e-19
4.10541e-23
6.21362e-23
1.70479e-19
-3.09723e-23
-4.10081e-23
1.70455e-19
2.34798e-23
2.5887e-23
1.70468e-19
-1.41896e-23
-1.39208e-23
1.70462e-19
9.37949e-24
7.63929e-24
1.70465e-19
-4.26506e-24
-3.10213e-24
1.70463e-19
2.89798e-24
1.82093e-24
1.70464e-19
-7.25937e-25
-5.49574e-25
1.70463e-19
9.05313e-25
7.35414e-25
1.70464e-19
-6.03624e-26
-3.79239e-25
1.70463e-19
4.19691e-25
6.62923e-25
1.70464e-19
-2.73653e-26
-5.93841e-25
1.70463e-19
3.08394e-25
7.79148e-25
1.70464e-19
-2.21957e-25
-8.22836e-25
1.70463e-19
1.63356e-25
8.49966e-25
1.70464e-19
-6.02362e-25
-1.21838e-24
1.70463e-19
-1.67124e-25
9.29628e-25
1.70464e-19
-1.16705e-24
-1.71776e-24
1.70463e-19
-4.06166e-25
1.09062e-24
1.70465e-19
-1.68282e-24
-2.33887e-24
1.70463e-19
5.76599e-25
1.60793e-24
1.70465e-19
-4.30167e-25
-2.58753e-24
1.70459e-19
1.3672e-23
5.22793e-24
1.70452e-19
2.52124e-23
4.37277e-24
1.7041e-19
1.11398e-22
3.77049e-23
9.38419e-23
4.54243e-23
1.76521e-19
-1.84947e-22
-3.5862e-23
1.76687e-19
-2.99401e-22
-1.52207e-22
1.76665e-19
-9.66579e-23
2.93294e-23
1.76733e-19
-3.08536e-23
-6.77949e-23
1.76672e-19
5.85829e-24
6.14974e-23
1.7673e-19
4.98371e-24
-5.96941e-23
1.76669e-19
4.75546e-24
6.17051e-23
1.76727e-19
6.07984e-24
-6.02196e-23
1.76665e-19
8.04538e-25
6.24218e-23
1.76725e-19
7.99614e-24
-6.15073e-23
1.76661e-19
-5.58547e-24
6.38611e-23
1.76727e-19
9.58963e-24
-6.56394e-23
1.76657e-19
-1.23795e-23
6.91944e-23
1.76733e-19
1.41152e-23
-7.4956e-23
1.76648e-19
-1.59094e-23
8.33904e-23
1.76744e-19
1.58267e-23
-9.4007e-23
1.76635e-19
-1.13045e-23
1.07518e-22
1.76756e-19
5.71616e-24
-1.19991e-22
1.76625e-19
5.8748e-24
1.31565e-22
1.7676e-19
-1.67689e-23
-1.36084e-22
1.76628e-19
3.06354e-23
1.34951e-22
1.76748e-19
-3.77137e-23
-1.23407e-22
1.76646e-19
4.36546e-23
1.06703e-22
1.76727e-19
-4.13365e-23
-8.38898e-23
1.76668e-19
3.77746e-23
6.21889e-23
1.76707e-19
-2.84875e-23
-4.11045e-23
1.76683e-19
2.168e-23
2.59857e-23
1.76697e-19
-1.30637e-23
-1.40059e-23
1.7669e-19
8.69126e-24
7.69871e-24
1.76693e-19
-3.91361e-24
-3.13391e-24
1.76692e-19
2.70507e-24
1.8383e-24
1.76692e-19
-6.4011e-25
-5.52442e-25
1.76692e-19
8.57383e-25
7.42681e-25
1.76692e-19
-3.38127e-26
-3.73815e-25
1.76692e-19
4.0374e-25
6.6487e-25
1.76692e-19
-7.3215e-27
-5.87682e-25
1.76691e-19
2.93142e-25
7.84212e-25
1.76692e-19
-2.04768e-25
-8.15321e-25
1.76691e-19
1.47406e-25
8.4954e-25
1.76692e-19
-5.72411e-25
-1.21694e-24
1.76691e-19
-1.90257e-25
9.24126e-25
1.76693e-19
-1.1271e-24
-1.72565e-24
1.76692e-19
-4.41558e-25
1.06817e-24
1.76694e-19
-1.61894e-24
-2.35696e-24
1.76692e-19
5.89926e-25
1.58877e-24
1.76694e-19
-2.45975e-25
-2.62058e-24
1.76688e-19
1.4169e-23
5.32919e-24
1.76682e-19
2.64002e-23
4.63629e-24
1.76639e-19
1.13532e-22
3.97911e-23
9.41705e-23
4.69305e-23
1.81859e-19
-1.84313e-22
-3.8437e-23
1.82023e-19
-3.06404e-22
-1.57464e-22
1.82e-19
-1.01759e-22
2.75684e-23
1.82069e-19
-3.18571e-23
-6.81446e-23
1.82008e-19
5.21167e-24
6.12938e-23
1.82066e-19
6.03105e-24
-5.94829e-23
1.82004e-19
4.69511e-24
6.16071e-23
1.82063e-19
6.87028e-24
-5.99968e-23
1.82e-19
7.54698e-25
6.23416e-23
1.82061e-19
8.29889e-24
-6.13019e-23
1.81997e-19
-5.49241e-24
6.37902e-23
1.82062e-19
9.25401e-24
-6.55104e-23
1.81992e-19
-1.17972e-23
6.9088e-23
1.82068e-19
1.31229e-23
-7.48039e-23
1.81984e-19
-1.48468e-23
8.31664e-23
1.82079e-19
1.46652e-23
-9.36789e-23
1.81971e-19
-1.05083e-23
1.07057e-22
1.82091e-19
5.60397e-24
-1.1941e-22
1.81961e-19
5.08435e-24
1.3098e-22
1.82095e-19
-1.48661e-23
-1.35581e-22
1.81964e-19
2.75183e-23
1.34548e-22
1.82084e-19
-3.3919e-23
-1.23151e-22
1.81982e-19
3.94672e-23
1.06581e-22
1.82062e-19
-3.74654e-23
-8.3932e-23
1.82004e-19
3.4439e-23
6.22856e-23
1.82043e-19
-2.59734e-23
-4.12117e-23
1.82019e-19
1.98384e-23
2.60892e-23
1.82032e-19
-1.19184e-23
-1.40863e-23
1.82026e-19
7.9769e-24
7.75547e-24
1.82029e-19
-3.55841e-24
-3.16218e-24
1.82027e-19
2.49945e-24
1.85381e-24
1.82028e-19
-5.60689e-25
-5.54488e-25
1.82027e-19
8.00341e-25
7.49678e-25
1.82028e-19
-1.26258e-26
-3.68779e-25
1.82027e-19
3.81592e-25
6.66895e-25
1.82028e-19
7.29115e-27
-5.82368e-25
1.82027e-19
2.73919e-25
7.8982e-25
1.82028e-19
-1.89494e-25
-8.08603e-25
1.82027e-19
1.34107e-25
8.50126e-25
1.82028e-19
-5.38607e-25
-1.21546e-24
1.82027e-19
-2.01271e-25
9.21125e-25
1.82028e-19
-1.06875e-24
-1.73243e-24
1.82027e-19
-4.48673e-25
1.05023e-24
1.82029e-19
-1.52783e-24
-2.37353e-24
1.82027e-19
6.06089e-25
1.57262e-24
1.82029e-19
-8.18564e-26
-2.65284e-24
1.82024e-19
1.43289e-23
5.4179e-24
1.82018e-19
2.68696e-23
4.88668e-24
1.81976e-19
1.1312e-22
4.16427e-23
9.24869e-23
4.82693e-23
1.86418e-19
-1.79232e-22
-4.0407e-23
1.8658e-19
-3.06266e-22
-1.62237e-22
1.86556e-19
-1.04045e-22
2.57832e-23
1.86625e-19
-3.22883e-23
-6.84872e-23
1.86564e-19
4.77845e-24
6.10905e-23
1.86622e-19
6.81724e-24
-5.93488e-23
1.8656e-19
4.73395e-24
6.156e-23
1.86619e-19
7.34591e-24
-5.98332e-23
1.86556e-19
8.39619e-25
6.23009e-23
1.86617e-19
8.27394e-24
-6.11548e-23
1.86553e-19
-5.20624e-24
6.37534e-23
1.86619e-19
8.65712e-24
-6.54244e-23
1.86549e-19
-1.0997e-23
6.90192e-23
1.86625e-19
1.19066e-23
-7.46927e-23
1.8654e-19
-1.35887e-23
8.29926e-23
1.86635e-19
1.32949e-23
-9.34115e-23
1.86528e-19
-9.55176e-24
1.06712e-22
1.86647e-19
5.25768e-24
-1.18922e-22
1.86518e-19
4.41715e-24
1.30519e-22
1.86651e-19
-1.307e-23
-1.3517e-22
1.8652e-19
2.44825e-23
1.34201e-22
1.8664e-19
-3.01879e-23
-1.22939e-22
1.86538e-19
3.53096e-23
1.06479e-22
1.86619e-19
-3.35612e-23
-8.39969e-23
1.8656e-19
3.10417e-23
6.24136e-23
1.86599e-19
-2.34391e-23
-4.13258e-23
1.86575e-19
1.79608e-23
2.61964e-23
1.86589e-19
-1.07639e-23
-1.41609e-23
1.86582e-19
7.24024e-24
7.81004e-24
1.86585e-19
-3.20406e-24
-3.18721e-24
1.86584e-19
2.28183e-24
1.86853e-24
1.86584e-19
-4.88757e-25
-5.56252e-25
1.86584e-19
7.34132e-25
7.5632e-25
1.86584e-19
1.07231e-27
-3.62476e-25
1.86584e-19
3.52729e-25
6.68982e-25
1.86584e-19
1.60497e-26
-5.77198e-25
1.86584e-19
2.50045e-25
7.95507e-25
1.86584e-19
-1.75629e-25
-8.02894e-25
1.86583e-19
1.2231e-25
8.51983e-25
1.86584e-19
-4.99862e-25
-1.2146e-24
1.86584e-19
-2.00709e-25
9.19723e-25
1.86585e-19
-9.91072e-25
-1.73866e-24
1.86584e-19
-4.29562e-25
1.03674e-24
1.86586e-19
-1.40879e-24
-2.38833e-24
1.86584e-19
6.21859e-25
1.55981e-24
1.86586e-19
5.80588e-26
-2.68479e-24
1.8658e-19
1.41429e-23
5.49752e-24
1.86575e-19
2.66164e-23
5.09909e-24
1.86534e-19
1.10239e-22
4.33399e-23
8.88948e-23
4.94556e-23
1.90295e-19
-1.69904e-22
-4.17856e-23
1.90454e-19
-2.99006e-22
-1.66438e-22
1.90429e-19
-1.03452e-22
2.42215e-23
1.90497e-19
-3.20342e-23
-6.88205e-23
1.90436e-19
4.5774e-24
6.08871e-23
1.90494e-19
7.39152e-24
-5.92762e-23
1.90432e-19
4.8454e-24
6.15244e-23
1.90492e-19
7.55448e-24
-5.97254e-23
1.90429e-19
1.00961e-24
6.22877e-23
1.9049e-19
7.97413e-24
-6.10564e-23
1.90425e-19
-4.78785e-24
6.37485e-23
1.90491e-19
7.86268e-24
-6.53723e-23
1.90421e-19
-1.00476e-23
6.89794e-23
1.90497e-19
1.05461e-23
-7.46161e-23
1.90413e-19
-1.22168e-23
8.28579e-23
1.90508e-19
1.17961e-23
-9.3189e-23
1.904e-19
-8.52908e-24
1.06441e-22
1.9052e-19
4.77476e-24
-1.18531e-22
1.9039e-19
3.78929e-24
1.30163e-22
1.90524e-19
-1.13442e-23
-1.34828e-22
1.90393e-19
2.1515e-23
1.33905e-22
1.90513e-19
-2.65181e-23
-1.22766e-22
1.90411e-19
3.11998e-23
1.06388e-22
1.90491e-19
-2.96454e-23
-8.40599e-23
1.90433e-19
2.75834e-23
6.25538e-23
1.90472e-19
-2.08828e-23
-4.14495e-23
1.90448e-19
1.60428e-23
2.63103e-23
1.90461e-19
-9.60786e-24
-1.42286e-23
1.90455e-19
6.48228e-24
7.86306e-24
1.90458e-19
-2.85367e-24
-3.20904e-24
1.90456e-19
2.05176e-24
1.88295e-24
1.90457e-19
-4.25064e-25
-5.57928e-25
1.90457e-19
6.5898e-25
7.62506e-25
1.90457e-19
5.09493e-27
-3.54398e-25
1.90456e-19
3.1702e-25
6.70896e-25
1.90457e-19
1.80698e-26
-5.71786e-25
1.90456e-19
2.21313e-25
8.01098e-25
1.90457e-19
-1.62557e-25
-7.98121e-25
1.90456e-19
1.1093e-25
8.54612e-25
1.90457e-19
-4.54332e-25
-1.21573e-24
1.90456e-19
-1.88321e-25
9.18583e-25
1.90458e-19
-8.93135e-25
-1.74492e-24
1.90456e-19
-3.85124e-25
1.0255e-24
1.90458e-19
-1.26162e-24
-2.40171e-24
1.90456e-19
6.34423e-25
1.55072e-24
1.90459e-19
1.71257e-25
-2.71557e-24
1.90453e-19
1.36107e-23
5.5708e-24
1.90449e-19
2.5653e-23
5.2829e-24
1.90409e-19
1.04945e-22
4.496e-23
8.35241e-23
5.05034e-23
1.93568e-19
-1.56662e-22
-4.25965e-23
1.93724e-19
-2.84857e-22
-1.7005e-22
1.93697e-19
-1.00033e-22
2.29102e-23
1.93765e-19
-3.10406e-23
-6.91186e-23
1.93704e-19
4.57868e-24
6.07297e-23
1.93762e-19
7.78505e-24
-5.92389e-23
1.937e-19
5.02068e-24
6.14825e-23
1.9376e-19
7.52927e-24
-5.96532e-23
1.93697e-19
1.2053e-24
6.23128e-23
1.93758e-19
7.44107e-24
-6.09905e-23
1.93693e-19
-4.28865e-24
6.37666e-23
1.9376e-19
6.92394e-24
-6.53457e-23
1.93689e-19
-9.00272e-24
6.89599e-23
1.93765e-19
9.10594e-24
-7.45687e-23
1.93681e-19
-1.0787e-23
8.27505e-23
1.93776e-19
1.02295e-23
-9.30082e-23
1.93669e-19
-7.49043e-24
1.06217e-22
1.93788e-19
4.22758e-24
-1.18226e-22
1.93659e-19
3.16081e-24
1.29876e-22
1.93792e-19
-9.67129e-24
-1.34539e-22
1.93661e-19
1.86043e-23
1.33659e-22
1.93781e-19
-2.29057e-23
-1.22625e-22
1.93679e-19
2.71489e-23
1.06307e-22
1.9376e-19
-2.57404e-23
-8.41097e-23
1.93701e-19
2.4075e-23
6.26875e-23
1.9374e-19
-1.8297e-23
-4.1581e-23
1.93716e-19
1.40764e-23
2.64315e-23
1.9373e-19
-8.45466e-24
-1.42893e-23
1.93723e-19
5.7013e-24
7.91601e-24
1.93726e-19
-2.50918e-24
-3.22795e-24
1.93725e-19
1.80816e-24
1.89795e-24
1.93725e-19
-3.69911e-25
-5.59248e-25
1.93725e-19
5.75134e-25
7.68158e-25
1.93725e-19
-6.99011e-28
-3.46669e-25
1.93725e-19
2.7455e-25
6.7279e-25
1.93725e-19
1.28562e-26
-5.66216e-25
1.93725e-19
1.8763e-25
8.06276e-25
1.93725e-19
-1.49759e-25
-7.94576e-25
1.93724e-19
9.85241e-26
8.58449e-25
1.93725e-19
-3.99914e-25
-1.21917e-24
1.93724e-19
-1.63429e-25
9.16617e-25
1.93726e-19
-7.74862e-25
-1.75114e-24
1.93725e-19
-3.16152e-25
1.01576e-24
1.93727e-19
-1.08719e-24
-2.41326e-24
1.93725e-19
6.44902e-25
1.5417e-24
1.93727e-19
2.57427e-25
-2.74541e-24
1.93722e-19
1.27402e-23
5.63977e-24
1.93718e-19
2.40165e-23
5.43727e-24
1.93679e-19
9.72724e-23
4.65639e-23
7.65244e-23
5.14212e-23
1.96304e-19
-1.39931e-22
-4.29001e-23
1.96456e-19
-2.64233e-22
-1.73086e-22
1.96428e-19
-9.39229e-23
2.18435e-23
1.96495e-19
-2.92954e-23
-6.93689e-23
1.96434e-19
4.73802e-24
6.06302e-23
1.96493e-19
8.02533e-24
-5.92263e-23
1.9643e-19
5.23893e-24
6.14481e-23
1.9649e-19
7.29482e-24
-5.96019e-23
1.96427e-19
1.38371e-24
6.23623e-23
1.96489e-19
6.70816e-24
-6.09448e-23
1.96424e-19
-3.7441e-24
6.37951e-23
1.9649e-19
5.88408e-24
-6.53369e-23
1.9642e-19
-7.89926e-24
6.89503e-23
1.96496e-19
7.62929e-24
-7.45387e-23
1.96412e-19
-9.33317e-24
8.26612e-23
1.96506e-19
8.64559e-24
-9.28718e-23
1.96399e-19
-6.46604e-24
1.06034e-22
1.96518e-19
3.66305e-24
-1.17991e-22
1.96389e-19
2.52332e-24
1.29631e-22
1.96522e-19
-8.04521e-24
-1.34291e-22
1.96392e-19
1.57417e-23
1.33455e-22
1.96512e-19
-1.93472e-23
-1.22512e-22
1.9641e-19
2.31618e-23
1.06236e-22
1.9649e-19
-2.18656e-23
-8.41421e-23
1.96432e-19
2.05472e-23
6.2787e-23
1.96471e-19
-1.56808e-23
-4.17082e-23
1.96447e-19
1.20574e-23
2.6552e-23
1.9646e-19
-7.30334e-24
-1.43471e-23
1.96454e-19
4.8941e-24
7.96956e-24
1.96457e-19
-2.17196e-24
-3.24371e-24
1.96455e-19
1.55026e-24
1.91281e-24
1.96456e-19
-3.23464e-25
-5.60304e-25
1.96455e-19
4.83218e-25
7.73265e-25
1.96456e-19
-1.4469e-26
-3.4082e-25
1.96455e-19
2.25718e-25
6.74262e-25
1.96456e-19
1.72689e-27
-5.62342e-25
1.96455e-19
1.49324e-25
8.11109e-25
1.96456e-19
-1.36619e-25
-7.92128e-25
1.96455e-19
8.35931e-26
8.63109e-25
1.96456e-19
-3.35207e-25
-1.22475e-24
1.96455e-19
-1.24665e-25
9.12688e-25
1.96456e-19
-6.37556e-25
-1.75648e-24
1.96455e-19
-2.23398e-25
1.00651e-24
1.96457e-19
-8.87087e-25
-2.42324e-24
1.96455e-19
6.56749e-25
1.53101e-24
1.96458e-19
3.18228e-25
-2.77394e-24
1.96453e-19
1.15479e-23
5.70542e-24
1.96449e-19
2.17683e-23
5.55836e-24
1.96411e-19
8.72872e-23
4.81528e-23