/*--------------------------------*- C++ -*----------------------------------*\
| =========                 |                                                 |
| \\      /  F ield         | OpenFOAM: The Open Source CFD Toolbox           |
|  \\    /   O peration     | Version:  2412                                  |
|   \\  /    A nd           | Website:  www.openfoam.com                      |
|    \\/     M anipulation  |                                                 |
\*---------------------------------------------------------------------------*/
FoamFile
{
    version     2.0;
    format      ascii;
    arch        "LSB;label=32;scalar=64";
    class       volVectorField;
    location    "5e-05";
    object      U;
}
// * * * * * * * * * * * * * * * * * * * * * * * * * * * * * * * * * * * * * //

dimensions      [0 1 -1 0 0 0 0];

internalField   nonuniform List<vector> 
96800
(
(4.24583e-07 3.0166e-11 3.01354e-11)
(4.25206e-07 -3.84791e-11 -3.84779e-11)
(4.25304e-07 3.47999e-11 3.48082e-11)
(4.25366e-07 -3.72966e-11 -3.7295e-11)
(4.25339e-07 3.69329e-11 3.69387e-11)
(4.25347e-07 -3.69922e-11 -3.69853e-11)
(4.25319e-07 3.71972e-11 3.72041e-11)
(4.25344e-07 -3.75215e-11 -3.75134e-11)
(4.25301e-07 3.79095e-11 3.7915e-11)
(4.25351e-07 -3.86922e-11 -3.86856e-11)
(4.25277e-07 3.95968e-11 3.95993e-11)
(4.25373e-07 -4.13337e-11 -4.13276e-11)
(4.25246e-07 4.34822e-11 4.34862e-11)
(4.25408e-07 -4.67781e-11 -4.67706e-11)
(4.25214e-07 5.13544e-11 5.13567e-11)
(4.25423e-07 -5.88204e-11 -5.8818e-11)
(4.25226e-07 6.33246e-11 6.33202e-11)
(4.25367e-07 -6.51787e-11 -6.51801e-11)
(4.25326e-07 6.75191e-11 6.75203e-11)
(4.2522e-07 -6.77429e-11 -6.77396e-11)
(4.2549e-07 6.57411e-11 6.57417e-11)
(4.25066e-07 -5.99245e-11 -5.99249e-11)
(4.25595e-07 5.17784e-11 5.17771e-11)
(4.25023e-07 -4.15792e-11 -4.1582e-11)
(4.2557e-07 3.15437e-11 3.15414e-11)
(4.251e-07 -2.19424e-11 -2.19457e-11)
(4.25464e-07 1.44074e-11 1.44051e-11)
(4.25209e-07 -8.53702e-12 -8.54057e-12)
(4.2537e-07 4.81477e-12 4.81393e-12)
(4.25278e-07 -2.37678e-12 -2.37863e-12)
(4.25324e-07 1.20769e-12 1.20758e-12)
(4.25304e-07 -5.38276e-13 -5.39181e-13)
(4.2531e-07 3.5555e-13 3.5622e-13)
(4.2531e-07 -2.53167e-13 -2.53161e-13)
(4.25308e-07 2.88991e-13 2.90276e-13)
(4.25311e-07 -3.10536e-13 -3.09978e-13)
(4.25308e-07 3.67785e-13 3.69305e-13)
(4.25311e-07 -4.17915e-13 -4.18941e-13)
(4.25307e-07 4.747e-13 4.75232e-13)
(4.25311e-07 -5.59447e-13 -5.59748e-13)
(4.25307e-07 6.15253e-13 6.17084e-13)
(4.25313e-07 -7.45107e-13 -7.45421e-13)
(4.25308e-07 8.0058e-13 8.02396e-13)
(4.25315e-07 -9.92763e-13 -9.92749e-13)
(4.25309e-07 1.05164e-12 1.05334e-12)
(4.25317e-07 -1.28381e-12 -1.28378e-12)
(4.25306e-07 1.42659e-12 1.42611e-12)
(4.25283e-07 -1.01649e-12 -1.02009e-12)
(4.25243e-07 2.2816e-12 2.28118e-12)
(4.24877e-07 7.38486e-12 7.33832e-12)
(9.65328e-07 9.35194e-12 1.47599e-10)
(9.66667e-07 -9.69623e-11 -1.18562e-10)
(9.66921e-07 5.53734e-11 1.10746e-10)
(9.67071e-07 -6.92993e-11 -1.12793e-10)
(9.67013e-07 6.8717e-11 1.15004e-10)
(9.67036e-07 -6.76927e-11 -1.17102e-10)
(9.66971e-07 6.86667e-11 1.19781e-10)
(9.67028e-07 -6.887e-11 -1.2287e-10)
(9.66932e-07 6.96714e-11 1.26367e-10)
(9.67038e-07 -7.03996e-11 -1.31024e-10)
(9.66881e-07 7.15446e-11 1.35561e-10)
(9.67079e-07 -7.39645e-11 -1.41231e-10)
(9.66823e-07 7.68582e-11 1.45319e-10)
(9.67137e-07 -8.24514e-11 -1.50077e-10)
(9.66776e-07 9.02032e-11 1.51773e-10)
(9.67146e-07 -9.74849e-11 -1.53298e-10)
(9.66825e-07 1.05483e-10 1.53171e-10)
(9.67008e-07 -1.13449e-10 -1.49592e-10)
(9.67043e-07 1.25357e-10 1.40739e-10)
(9.66707e-07 -1.32705e-10 -1.29952e-10)
(9.67365e-07 1.36204e-10 1.17427e-10)
(9.66417e-07 -1.28924e-10 -1.01319e-10)
(9.67552e-07 1.16062e-10 8.47214e-11)
(9.66358e-07 -9.55464e-11 -6.70848e-11)
(9.67478e-07 7.46045e-11 5.0997e-11)
(9.6653e-07 -5.24366e-11 -3.57885e-11)
(9.67255e-07 3.5152e-11 2.39605e-11)
(9.66751e-07 -2.06603e-11 -1.43834e-11)
(9.67067e-07 1.19618e-11 8.26459e-12)
(9.66888e-07 -5.67926e-12 -4.04901e-12)
(9.66977e-07 3.11047e-12 2.02835e-12)
(9.66939e-07 -1.22379e-12 -8.226e-13)
(9.6695e-07 9.46419e-13 5.32217e-13)
(9.6695e-07 -5.20167e-13 -3.55633e-13)
(9.66945e-07 6.70571e-13 4.97973e-13)
(9.66951e-07 -6.34781e-13 -5.55209e-13)
(9.66944e-07 7.69686e-13 7.57451e-13)
(9.66951e-07 -8.75919e-13 -8.48105e-13)
(9.66944e-07 9.21524e-13 1.07767e-12)
(9.66953e-07 -1.23573e-12 -1.1652e-12)
(9.66944e-07 1.12322e-12 1.41859e-12)
(9.66956e-07 -1.71433e-12 -1.53079e-12)
(9.66946e-07 1.41217e-12 1.83933e-12)
(9.66962e-07 -2.3207e-12 -2.01691e-12)
(9.66948e-07 1.9321e-12 2.43261e-12)
(9.66964e-07 -2.817e-12 -2.57081e-12)
(9.66941e-07 4.21146e-12 3.44021e-12)
(9.6689e-07 8.10418e-13 -2.23918e-12)
(9.66796e-07 2.12478e-11 5.4677e-12)
(9.66064e-07 3.26512e-11 1.21759e-11)
(1.3668e-06 -5.93839e-11 1.17637e-10)
(1.36863e-06 -1.35159e-10 -1.21595e-10)
(1.36901e-06 1.668e-11 1.15882e-10)
(1.36923e-06 -5.18543e-11 -1.1845e-10)
(1.36915e-06 4.65993e-11 1.22076e-10)
(1.36919e-06 -4.38269e-11 -1.2429e-10)
(1.3691e-06 4.45016e-11 1.28257e-10)
(1.36918e-06 -4.29143e-11 -1.32669e-10)
(1.36904e-06 4.24748e-11 1.37974e-10)
(1.36919e-06 -4.05966e-11 -1.44746e-10)
(1.36897e-06 3.89483e-11 1.5196e-10)
(1.36924e-06 -3.84421e-11 -1.60068e-10)
(1.3689e-06 3.7326e-11 1.66167e-10)
(1.3693e-06 -3.96166e-11 -1.7218e-10)
(1.36885e-06 4.47682e-11 1.751e-10)
(1.36929e-06 -5.14743e-11 -1.74584e-10)
(1.36894e-06 6.51125e-11 1.71645e-10)
(1.36908e-06 -8.02521e-11 -1.63745e-10)
(1.36925e-06 1.04273e-10 1.49852e-10)
(1.36868e-06 -1.24034e-10 -1.35303e-10)
(1.36967e-06 1.43517e-10 1.21484e-10)
(1.36832e-06 -1.48e-10 -1.06287e-10)
(1.36989e-06 1.44328e-10 8.99731e-11)
(1.36827e-06 -1.24922e-10 -7.19897e-11)
(1.36976e-06 1.03365e-10 5.57937e-11)
(1.36852e-06 -7.51199e-11 -3.97987e-11)
(1.36946e-06 5.28628e-11 2.7223e-11)
(1.36881e-06 -3.1715e-11 -1.68223e-11)
(1.36921e-06 1.93712e-11 9.87643e-12)
(1.36899e-06 -9.17812e-12 -4.96729e-12)
(1.3691e-06 5.38984e-12 2.50483e-12)
(1.36905e-06 -1.95513e-12 -1.03234e-12)
(1.36907e-06 1.57438e-12 6.57107e-13)
(1.36907e-06 -6.36045e-13 -4.01179e-13)
(1.36906e-06 8.75291e-13 5.80634e-13)
(1.36907e-06 -6.67383e-13 -6.27244e-13)
(1.36906e-06 8.48918e-13 8.68928e-13)
(1.36907e-06 -9.6151e-13 -9.76541e-13)
(1.36906e-06 9.06724e-13 1.21684e-12)
(1.36907e-06 -1.47677e-12 -1.35889e-12)
(1.36906e-06 9.64255e-13 1.56528e-12)
(1.36907e-06 -2.17627e-12 -1.78895e-12)
(1.36906e-06 1.13216e-12 1.98989e-12)
(1.36908e-06 -3.03084e-12 -2.35175e-12)
(1.36906e-06 1.70224e-12 2.58582e-12)
(1.36909e-06 -3.49135e-12 -3.01505e-12)
(1.36905e-06 6.62248e-12 3.6746e-12)
(1.36898e-06 5.66152e-12 -2.41779e-12)
(1.36885e-06 4.64388e-11 6.10709e-12)
(1.3679e-06 6.05419e-11 1.43278e-11)
(1.6869e-06 -9.65101e-11 1.19304e-10)
(1.68908e-06 -1.96437e-10 -1.17177e-10)
(1.68958e-06 -1.31472e-11 1.10359e-10)
(1.68985e-06 -5.20279e-11 -1.12544e-10)
(1.68976e-06 4.0156e-11 1.1511e-10)
(1.68981e-06 -3.47681e-11 -1.16618e-10)
(1.68969e-06 3.60777e-11 1.19986e-10)
(1.68979e-06 -3.16246e-11 -1.24256e-10)
(1.68963e-06 3.07142e-11 1.29435e-10)
(1.6898e-06 -2.57715e-11 -1.36335e-10)
(1.68955e-06 2.17944e-11 1.43288e-10)
(1.68985e-06 -1.70321e-11 -1.51807e-10)
(1.68947e-06 1.04282e-11 1.58892e-10)
(1.68992e-06 -6.84566e-12 -1.65848e-10)
(1.68944e-06 7.32504e-12 1.70139e-10)
(1.68988e-06 -1.38336e-11 -1.71469e-10)
(1.68957e-06 2.73588e-11 1.69996e-10)
(1.68961e-06 -4.3588e-11 -1.63438e-10)
(1.68994e-06 7.33685e-11 1.4941e-10)
(1.68914e-06 -1.00324e-10 -1.34451e-10)
(1.69041e-06 1.29722e-10 1.22403e-10)
(1.68875e-06 -1.42971e-10 -1.07941e-10)
(1.69063e-06 1.47898e-10 9.16346e-11)
(1.68873e-06 -1.3287e-10 -7.36491e-11)
(1.69046e-06 1.13859e-10 5.74731e-11)
(1.68903e-06 -8.43109e-11 -4.12984e-11)
(1.6901e-06 6.08228e-11 2.84578e-11)
(1.68937e-06 -3.66986e-11 -1.75162e-11)
(1.68982e-06 2.2999e-11 1.04179e-11)
(1.68957e-06 -1.08469e-11 -5.23183e-12)
(1.68969e-06 6.57526e-12 2.72216e-12)
(1.68964e-06 -2.23766e-12 -1.10213e-12)
(1.68966e-06 1.85843e-12 7.19577e-13)
(1.68966e-06 -5.86493e-13 -4.36771e-13)
(1.68965e-06 8.94714e-13 6.10128e-13)
(1.68966e-06 -5.50591e-13 -6.56296e-13)
(1.68965e-06 7.85712e-13 8.85481e-13)
(1.68966e-06 -8.61233e-13 -1.00549e-12)
(1.68965e-06 7.6796e-13 1.21734e-12)
(1.68966e-06 -1.45056e-12 -1.38202e-12)
(1.68965e-06 7.24988e-13 1.55401e-12)
(1.68967e-06 -2.26312e-12 -1.81466e-12)
(1.68965e-06 8.15755e-13 1.96515e-12)
(1.68968e-06 -3.22603e-12 -2.38263e-12)
(1.68965e-06 1.55096e-12 2.53961e-12)
(1.68968e-06 -3.37114e-12 -3.04657e-12)
(1.68964e-06 9.65593e-12 3.68098e-12)
(1.68956e-06 1.24717e-11 -1.81708e-12)
(1.6894e-06 7.69582e-11 6.71141e-12)
(1.68832e-06 8.80788e-11 1.57835e-11)
(1.95104e-06 -1.58682e-10 1.40065e-10)
(1.95347e-06 -2.62218e-10 -1.26334e-10)
(1.95407e-06 -4.52075e-11 1.11412e-10)
(1.95438e-06 -5.33279e-11 -1.17592e-10)
(1.95429e-06 3.64877e-11 1.18988e-10)
(1.95434e-06 -2.87608e-11 -1.20024e-10)
(1.95421e-06 3.26764e-11 1.22645e-10)
(1.95432e-06 -2.60728e-11 -1.26074e-10)
(1.95413e-06 2.6842e-11 1.3024e-10)
(1.95432e-06 -2.01297e-11 -1.362e-10)
(1.95405e-06 1.65706e-11 1.42061e-10)
(1.95437e-06 -1.0006e-11 -1.49754e-10)
(1.95397e-06 1.22727e-12 1.56054e-10)
(1.95443e-06 5.43973e-12 -1.62543e-10)
(1.95395e-06 -9.37548e-12 1.66277e-10)
(1.95437e-06 7.2871e-12 -1.68135e-10)
(1.95412e-06 4.94749e-12 1.66968e-10)
(1.95406e-06 -2.14442e-11 -1.60821e-10)
(1.95454e-06 5.26686e-11 1.47673e-10)
(1.95354e-06 -8.18788e-11 -1.32706e-10)
(1.95504e-06 1.15286e-10 1.21693e-10)
(1.95314e-06 -1.32741e-10 -1.07687e-10)
(1.95525e-06 1.42771e-10 9.19503e-11)
(1.95315e-06 -1.31119e-10 -7.43821e-11)
(1.95504e-06 1.1474e-10 5.84107e-11)
(1.95349e-06 -8.56883e-11 -4.21472e-11)
(1.95464e-06 6.27746e-11 2.91728e-11)
(1.95386e-06 -3.79358e-11 -1.7903e-11)
(1.95434e-06 2.41105e-11 1.06705e-11)
(1.95408e-06 -1.13411e-11 -5.35569e-12)
(1.9542e-06 7.01894e-12 2.82148e-12)
(1.95415e-06 -2.27757e-12 -1.12059e-12)
(1.95416e-06 1.97615e-12 7.33991e-13)
(1.95417e-06 -5.10105e-13 -4.35608e-13)
(1.95416e-06 8.89002e-13 5.98397e-13)
(1.95417e-06 -4.40399e-13 -6.41156e-13)
(1.95415e-06 7.44938e-13 8.69567e-13)
(1.95417e-06 -7.69571e-13 -9.86349e-13)
(1.95415e-06 6.66874e-13 1.1984e-12)
(1.95417e-06 -1.42651e-12 -1.35215e-12)
(1.95415e-06 5.03581e-13 1.53387e-12)
(1.95418e-06 -2.32677e-12 -1.77999e-12)
(1.95416e-06 5.04222e-13 1.96172e-12)
(1.95419e-06 -3.35901e-12 -2.34875e-12)
(1.95416e-06 1.42647e-12 2.54852e-12)
(1.95419e-06 -3.07342e-12 -2.98604e-12)
(1.95415e-06 1.30302e-11 3.78283e-12)
(1.95406e-06 1.97004e-11 -1.54379e-12)
(1.95387e-06 1.08947e-10 7.30757e-12)
(1.95272e-06 1.13636e-10 1.65292e-11)
(2.173e-06 -2.24711e-10 1.31612e-10)
(2.17561e-06 -3.26322e-10 -1.28798e-10)
(2.17628e-06 -7.89763e-11 1.10918e-10)
(2.17663e-06 -4.86554e-11 -1.19213e-10)
(2.17653e-06 2.6832e-11 1.19915e-10)
(2.17659e-06 -1.63758e-11 -1.21871e-10)
(2.17645e-06 2.30412e-11 1.24793e-10)
(2.17656e-06 -1.41798e-11 -1.28208e-10)
(2.17637e-06 1.72267e-11 1.32267e-10)
(2.17656e-06 -8.6996e-12 -1.37983e-10)
(2.17628e-06 6.62115e-12 1.43446e-10)
(2.17661e-06 3.29159e-13 -1.50564e-10)
(2.17621e-06 -8.72239e-12 1.56126e-10)
(2.17665e-06 1.54127e-11 -1.61957e-10)
(2.17621e-06 -2.0005e-11 1.64915e-10)
(2.17657e-06 1.94112e-11 -1.66861e-10)
(2.1764e-06 -7.16452e-12 1.65742e-10)
(2.17622e-06 -9.03027e-12 -1.58586e-10)
(2.17685e-06 3.96869e-11 1.46105e-10)
(2.17568e-06 -6.9271e-11 -1.31083e-10)
(2.17737e-06 1.04127e-10 1.20428e-10)
(2.17528e-06 -1.22964e-10 -1.06851e-10)
(2.17756e-06 1.35468e-10 9.16957e-11)
(2.17531e-06 -1.25725e-10 -7.4602e-11)
(2.17733e-06 1.1137e-10 5.88823e-11)
(2.17569e-06 -8.34954e-11 -4.25864e-11)
(2.1769e-06 6.1815e-11 2.96001e-11)
(2.17608e-06 -3.74433e-11 -1.81811e-11)
(2.17658e-06 2.39994e-11 1.08297e-11)
(2.17631e-06 -1.12611e-11 -5.4356e-12)
(2.17644e-06 7.09005e-12 2.87669e-12)
(2.17639e-06 -2.21702e-12 -1.13008e-12)
(2.1764e-06 2.02963e-12 7.47774e-13)
(2.1764e-06 -4.44107e-13 -4.29051e-13)
(2.17639e-06 8.9692e-13 5.94704e-13)
(2.1764e-06 -3.58336e-13 -6.26666e-13)
(2.17639e-06 7.2617e-13 8.67131e-13)
(2.1764e-06 -7.02898e-13 -9.73438e-13)
(2.17639e-06 5.88273e-13 1.19533e-12)
(2.17641e-06 -1.42047e-12 -1.3436e-12)
(2.17639e-06 2.86235e-13 1.54141e-12)
(2.17641e-06 -2.39424e-12 -1.77723e-12)
(2.17639e-06 1.80035e-13 1.96812e-12)
(2.17642e-06 -3.46946e-12 -2.3537e-12)
(2.1764e-06 1.29774e-12 2.55037e-12)
(2.17643e-06 -2.72251e-12 -2.88336e-12)
(2.17638e-06 1.64342e-11 3.84922e-12)
(2.17629e-06 2.67797e-11 -1.45148e-12)
(2.17608e-06 1.40325e-10 7.85051e-12)
(2.17489e-06 1.36558e-10 1.72232e-11)
(2.36147e-06 -2.69284e-10 1.2658e-10)
(2.36419e-06 -3.93849e-10 -1.27815e-10)
(2.36493e-06 -1.05527e-10 1.11811e-10)
(2.3653e-06 -4.80666e-11 -1.18e-10)
(2.3652e-06 2.16157e-11 1.18418e-10)
(2.36526e-06 -7.53801e-12 -1.21152e-10)
(2.36512e-06 1.62641e-11 1.24442e-10)
(2.36523e-06 -4.65744e-12 -1.2805e-10)
(2.36504e-06 9.58538e-12 1.32407e-10)
(2.36523e-06 1.13267e-12 -1.38334e-10)
(2.36495e-06 -1.80566e-12 1.43964e-10)
(2.36527e-06 9.40733e-12 -1.51111e-10)
(2.36488e-06 -1.73741e-11 1.56572e-10)
(2.3653e-06 2.36077e-11 -1.62108e-10)
(2.3649e-06 -2.79812e-11 1.64452e-10)
(2.36519e-06 2.78896e-11 -1.66374e-10)
(2.36512e-06 -1.52241e-11 1.64753e-10)
(2.36483e-06 -7.09528e-13 -1.57795e-10)
(2.36559e-06 3.0468e-11 1.4505e-10)
(2.36427e-06 -5.98268e-11 -1.29911e-10)
(2.3661e-06 9.50315e-11 1.19327e-10)
(2.36388e-06 -1.13944e-10 -1.06019e-10)
(2.36629e-06 1.27437e-10 9.12674e-11)
(2.36393e-06 -1.18879e-10 -7.45465e-11)
(2.36602e-06 1.06134e-10 5.90466e-11)
(2.36433e-06 -7.97895e-11 -4.28004e-11)
(2.36558e-06 5.95143e-11 2.98522e-11)
(2.36474e-06 -3.61034e-11 -1.83848e-11)
(2.36525e-06 2.33128e-11 1.09677e-11)
(2.36497e-06 -1.08945e-11 -5.49912e-12)
(2.3651e-06 6.97681e-12 2.91526e-12)
(2.36505e-06 -2.09678e-12 -1.14248e-12)
(2.36506e-06 2.03675e-12 7.58753e-13)
(2.36507e-06 -3.75909e-13 -4.29199e-13)
(2.36505e-06 8.99838e-13 5.95021e-13)
(2.36507e-06 -2.81774e-13 -6.23252e-13)
(2.36505e-06 7.06077e-13 8.68043e-13)
(2.36507e-06 -6.35796e-13 -9.71921e-13)
(2.36505e-06 5.13448e-13 1.19361e-12)
(2.36507e-06 -1.39601e-12 -1.34695e-12)
(2.36505e-06 7.58204e-14 1.55495e-12)
(2.36508e-06 -2.43078e-12 -1.78203e-12)
(2.36505e-06 -1.29884e-13 1.98454e-12)
(2.36509e-06 -3.5262e-12 -2.36126e-12)
(2.36506e-06 1.21009e-12 2.5426e-12)
(2.36509e-06 -2.32085e-12 -2.8393e-12)
(2.36504e-06 1.9723e-11 3.90471e-12)
(2.36496e-06 3.36696e-11 -1.36413e-12)
(2.36474e-06 1.69008e-10 8.70999e-12)
(2.36352e-06 1.56042e-10 1.78467e-11)
(2.52248e-06 -3.07353e-10 1.28094e-10)
(2.52527e-06 -4.5976e-10 -1.28013e-10)
(2.52606e-06 -1.29874e-10 1.12442e-10)
(2.52644e-06 -5.12036e-11 -1.17341e-10)
(2.52635e-06 1.95415e-11 1.17755e-10)
(2.5264e-06 -2.3489e-12 -1.20518e-10)
(2.52626e-06 1.32889e-11 1.23726e-10)
(2.52637e-06 1.10491e-12 -1.27381e-10)
(2.52618e-06 5.59551e-12 1.31763e-10)
(2.52636e-06 7.45172e-12 -1.3779e-10)
(2.52609e-06 -6.88615e-12 1.43619e-10)
(2.52639e-06 1.51344e-11 -1.50913e-10)
(2.52604e-06 -2.27057e-11 1.56499e-10)
(2.52642e-06 2.85668e-11 -1.62026e-10)
(2.52607e-06 -3.27615e-11 1.64082e-10)
(2.52629e-06 3.28837e-11 -1.66186e-10)
(2.5263e-06 -2.06789e-11 1.6341e-10)
(2.52591e-06 4.95146e-12 -1.57519e-10)
(2.52678e-06 2.36839e-11 1.445e-10)
(2.52535e-06 -5.22007e-11 -1.29251e-10)
(2.5273e-06 8.69568e-11 1.18555e-10)
(2.52496e-06 -1.0534e-10 -1.05413e-10)
(2.52747e-06 1.1906e-10 9.08894e-11)
(2.52504e-06 -1.1145e-10 -7.44225e-11)
(2.52719e-06 1.0008e-10 5.90716e-11)
(2.52545e-06 -7.53978e-11 -4.29287e-11)
(2.52673e-06 5.65527e-11 3.00059e-11)
(2.52587e-06 -3.43167e-11 -1.85351e-11)
(2.52639e-06 2.23107e-11 1.10818e-11)
(2.5261e-06 -1.0365e-11 -5.55315e-12)
(2.52624e-06 6.7504e-12 2.9484e-12)
(2.52619e-06 -1.93672e-12 -1.15742e-12)
(2.5262e-06 2.01107e-12 7.66491e-13)
(2.5262e-06 -3.00077e-13 -4.32044e-13)
(2.52619e-06 8.96004e-13 5.94973e-13)
(2.52621e-06 -2.06052e-13 -6.23486e-13)
(2.52619e-06 6.85468e-13 8.68158e-13)
(2.52621e-06 -5.70384e-13 -9.69738e-13)
(2.52619e-06 4.48237e-13 1.18973e-12)
(2.52621e-06 -1.35576e-12 -1.34755e-12)
(2.52619e-06 -1.01798e-13 1.54149e-12)
(2.52622e-06 -2.4458e-12 -1.7807e-12)
(2.52619e-06 -3.96185e-13 1.97736e-12)
(2.52623e-06 -3.54762e-12 -2.3601e-12)
(2.5262e-06 1.16923e-12 2.52853e-12)
(2.52623e-06 -1.9017e-12 -2.92763e-12)
(2.52618e-06 2.27097e-11 3.96307e-12)
(2.5261e-06 3.99987e-11 -1.31051e-12)
(2.52587e-06 1.9296e-10 9.74774e-12)
(2.52465e-06 1.71606e-10 1.83894e-11)
(2.6605e-06 -3.40389e-10 1.28457e-10)
(2.66332e-06 -5.17792e-10 -1.29238e-10)
(2.66414e-06 -1.52746e-10 1.13187e-10)
(2.66453e-06 -5.49377e-11 -1.17484e-10)
(2.66444e-06 1.71891e-11 1.17772e-10)
(2.66449e-06 1.88901e-12 -1.20562e-10)
(2.66436e-06 1.17308e-11 1.2355e-10)
(2.66446e-06 5.17154e-12 -1.2706e-10)
(2.66427e-06 3.73116e-12 1.31329e-10)
(2.66445e-06 1.12865e-11 -1.37355e-10)
(2.66419e-06 -9.40872e-12 1.43252e-10)
(2.66447e-06 1.80485e-11 -1.50582e-10)
(2.66414e-06 -2.5192e-11 1.56238e-10)
(2.66448e-06 3.05612e-11 -1.61759e-10)
(2.66419e-06 -3.46423e-11 1.63699e-10)
(2.66434e-06 3.47561e-11 -1.65868e-10)
(2.66443e-06 -2.35179e-11 1.63334e-10)
(2.66395e-06 8.59758e-12 -1.57342e-10)
(2.66492e-06 1.88062e-11 1.44267e-10)
(2.66339e-06 -4.59474e-11 -1.28913e-10)
(2.66543e-06 7.94967e-11 1.18039e-10)
(2.66302e-06 -9.69998e-11 -1.0503e-10)
(2.66559e-06 1.10541e-10 9.06245e-11)
(2.6631e-06 -1.03806e-10 -7.43255e-11)
(2.66529e-06 9.36815e-11 5.90643e-11)
(2.66353e-06 -7.06614e-11 -4.30352e-11)
(2.66483e-06 5.32446e-11 3.01176e-11)
(2.66395e-06 -3.22799e-11 -1.86546e-11)
(2.66449e-06 2.11273e-11 1.11768e-11)
(2.66419e-06 -9.73964e-12 -5.60091e-12)
(2.66433e-06 6.451e-12 2.97897e-12)
(2.66428e-06 -1.75667e-12 -1.17343e-12)
(2.66429e-06 1.96168e-12 7.74062e-13)
(2.66429e-06 -2.23079e-13 -4.32459e-13)
(2.66428e-06 8.86694e-13 5.96077e-13)
(2.6643e-06 -1.37344e-13 -6.22911e-13)
(2.66428e-06 6.6544e-13 8.68582e-13)
(2.6643e-06 -5.15835e-13 -9.65723e-13)
(2.66428e-06 3.95019e-13 1.18791e-12)
(2.6643e-06 -1.30958e-12 -1.34536e-12)
(2.66428e-06 -2.26952e-13 1.52503e-12)
(2.66431e-06 -2.44296e-12 -1.77819e-12)
(2.66428e-06 -6.13781e-13 1.95258e-12)
(2.66432e-06 -3.53813e-12 -2.35903e-12)
(2.66429e-06 1.15872e-12 2.52279e-12)
(2.66433e-06 -1.48509e-12 -3.01401e-12)
(2.66427e-06 2.52406e-11 4.02018e-12)
(2.6642e-06 4.54671e-11 -1.38089e-12)
(2.66396e-06 2.11216e-10 1.06689e-11)
(2.66275e-06 1.82991e-10 1.88797e-11)
(2.77899e-06 -3.63346e-10 1.27805e-10)
(2.7818e-06 -5.65063e-10 -1.30594e-10)
(2.78264e-06 -1.73273e-10 1.13755e-10)
(2.78303e-06 -5.84253e-11 -1.17778e-10)
(2.78295e-06 1.46622e-11 1.17478e-10)
(2.78299e-06 5.77606e-12 -1.20691e-10)
(2.78287e-06 1.05321e-11 1.23606e-10)
(2.78296e-06 8.6538e-12 -1.2696e-10)
(2.78278e-06 2.54433e-12 1.31326e-10)
(2.78294e-06 1.397e-11 -1.37212e-10)
(2.7827e-06 -1.07303e-11 1.43087e-10)
(2.78295e-06 1.93722e-11 -1.50378e-10)
(2.78267e-06 -2.59469e-11 1.56039e-10)
(2.78295e-06 3.06741e-11 -1.61514e-10)
(2.78272e-06 -3.46108e-11 1.63394e-10)
(2.78281e-06 3.46747e-11 -1.6562e-10)
(2.78298e-06 -2.43209e-11 1.633e-10)
(2.78241e-06 1.07029e-11 -1.57199e-10)
(2.78346e-06 1.53607e-11 1.44164e-10)
(2.78186e-06 -4.0742e-11 -1.28757e-10)
(2.78397e-06 7.24773e-11 1.17692e-10)
(2.78149e-06 -8.8866e-11 -1.04806e-10)
(2.78411e-06 1.01978e-10 9.04631e-11)
(2.78159e-06 -9.6084e-11 -7.42828e-11)
(2.78381e-06 8.71276e-11 5.90728e-11)
(2.78202e-06 -6.57362e-11 -4.31417e-11)
(2.78334e-06 4.97397e-11 3.02148e-11)
(2.78245e-06 -3.00958e-11 -1.87572e-11)
(2.78299e-06 1.98299e-11 1.12586e-11)
(2.7827e-06 -9.05878e-12 -5.6448e-12)
(2.78284e-06 6.10432e-12 3.00723e-12)
(2.78278e-06 -1.57142e-12 -1.19125e-12)
(2.78279e-06 1.89186e-12 7.81543e-13)
(2.7828e-06 -1.52775e-13 -4.30081e-13)
(2.78278e-06 8.69831e-13 5.97558e-13)
(2.7828e-06 -7.94279e-14 -6.2353e-13)
(2.78278e-06 6.43097e-13 8.70016e-13)
(2.7828e-06 -4.71852e-13 -9.62185e-13)
(2.78278e-06 3.51416e-13 1.18737e-12)
(2.7828e-06 -1.25852e-12 -1.34361e-12)
(2.78278e-06 -3.11455e-13 1.52501e-12)
(2.78281e-06 -2.41347e-12 -1.77752e-12)
(2.78278e-06 -7.78373e-13 1.95286e-12)
(2.78282e-06 -3.48604e-12 -2.36122e-12)
(2.78279e-06 1.16503e-12 2.53229e-12)
(2.78283e-06 -1.07457e-12 -3.07846e-12)
(2.78277e-06 2.72159e-11 4.07424e-12)
(2.78271e-06 4.9893e-11 -1.72866e-12)
(2.78247e-06 2.23728e-10 1.14049e-11)
(2.78127e-06 1.90071e-10 1.93291e-11)
(2.88069e-06 -3.75866e-10 1.28134e-10)
(2.88348e-06 -6.00089e-10 -1.31703e-10)
(2.88432e-06 -1.90673e-10 1.13775e-10)
(2.8847e-06 -6.16351e-11 -1.1802e-10)
(2.88463e-06 1.26784e-11 1.17046e-10)
(2.88467e-06 8.9593e-12 -1.20652e-10)
(2.88455e-06 9.82242e-12 1.23576e-10)
(2.88463e-06 1.14171e-11 -1.27002e-10)
(2.88447e-06 1.78531e-12 1.31412e-10)
(2.8846e-06 1.58099e-11 -1.37175e-10)
(2.8844e-06 -1.13637e-11 1.4303e-10)
(2.88461e-06 1.97487e-11 -1.50269e-10)
(2.88437e-06 -2.57187e-11 1.5592e-10)
(2.8846e-06 2.96742e-11 -1.61346e-10)
(2.88443e-06 -3.34254e-11 1.63183e-10)
(2.88445e-06 3.33499e-11 -1.65436e-10)
(2.88469e-06 -2.37696e-11 1.63242e-10)
(2.88405e-06 1.16096e-11 -1.57075e-10)
(2.88517e-06 1.29205e-11 1.44118e-10)
(2.88351e-06 -3.62587e-11 -1.28711e-10)
(2.88567e-06 6.57794e-11 1.17453e-10)
(2.88315e-06 -8.09007e-11 -1.04685e-10)
(2.88581e-06 9.33985e-11 9.03718e-11)
(2.88325e-06 -8.82994e-11 -7.42865e-11)
(2.8855e-06 8.04723e-11 5.91101e-11)
(2.88369e-06 -6.06966e-11 -4.32495e-11)
(2.88502e-06 4.61086e-11 3.03079e-11)
(2.88413e-06 -2.78227e-11 -1.8848e-11)
(2.88467e-06 1.8454e-11 1.13304e-11)
(2.88437e-06 -8.3481e-12 -5.68657e-12)
(2.88452e-06 5.72406e-12 3.03342e-12)
(2.88446e-06 -1.39126e-12 -1.20907e-12)
(2.88447e-06 1.80318e-12 7.88209e-13)
(2.88448e-06 -9.38388e-14 -4.32193e-13)
(2.88446e-06 8.43136e-13 5.99297e-13)
(2.88448e-06 -3.2831e-14 -6.23912e-13)
(2.88446e-06 6.15605e-13 8.71826e-13)
(2.88448e-06 -4.3459e-13 -9.59652e-13)
(2.88446e-06 3.15593e-13 1.18775e-12)
(2.88448e-06 -1.20104e-12 -1.34216e-12)
(2.88446e-06 -3.71137e-13 1.5258e-12)
(2.88449e-06 -2.35025e-12 -1.77808e-12)
(2.88446e-06 -8.79696e-13 1.95572e-12)
(2.8845e-06 -3.38285e-12 -2.36443e-12)
(2.88447e-06 1.18692e-12 2.55357e-12)
(2.88451e-06 -6.8179e-13 -3.12394e-12)
(2.88445e-06 2.85663e-11 4.12576e-12)
(2.8844e-06 5.30182e-11 -2.05863e-12)
(2.88416e-06 2.30756e-10 1.19937e-11)
(2.88298e-06 1.92847e-10 1.97351e-11)
(2.96786e-06 -3.79057e-10 1.29143e-10)
(2.97058e-06 -6.21601e-10 -1.32648e-10)
(2.97143e-06 -2.03783e-10 1.13424e-10)
(2.97179e-06 -6.42293e-11 -1.18202e-10)
(2.97173e-06 1.11875e-11 1.17114e-10)
(2.97176e-06 1.13911e-11 -1.20569e-10)
(2.97165e-06 9.5683e-12 1.23485e-10)
(2.97172e-06 1.3391e-11 -1.27014e-10)
(2.97158e-06 1.5022e-12 1.31392e-10)
(2.97169e-06 1.68104e-11 -1.37122e-10)
(2.97151e-06 -1.14184e-11 1.42978e-10)
(2.97169e-06 1.9376e-11 -1.50184e-10)
(2.97149e-06 -2.4798e-11 1.55828e-10)
(2.97168e-06 2.79264e-11 -1.6123e-10)
(2.97155e-06 -3.15015e-11 1.6304e-10)
(2.97152e-06 3.12374e-11 -1.653e-10)
(2.97182e-06 -2.2368e-11 1.63144e-10)
(2.97113e-06 1.16728e-11 -1.56975e-10)
(2.9723e-06 1.11209e-11 1.44113e-10)
(2.97059e-06 -3.22275e-11 -1.28737e-10)
(2.97279e-06 5.93175e-11 1.17284e-10)
(2.97024e-06 -7.30808e-11 -1.04627e-10)
(2.97292e-06 8.4826e-11 9.03199e-11)
(2.97035e-06 -8.0436e-11 -7.43165e-11)
(2.9726e-06 7.37151e-11 5.91708e-11)
(2.97079e-06 -5.55855e-11 -4.33536e-11)
(2.97213e-06 4.23855e-11 3.03988e-11)
(2.97123e-06 -2.54979e-11 -1.89297e-11)
(2.97178e-06 1.70196e-11 1.13954e-11)
(2.97148e-06 -7.6243e-12 -5.72628e-12)
(2.97162e-06 5.31668e-12 3.05755e-12)
(2.97156e-06 -1.22209e-12 -1.2264e-12)
(2.97157e-06 1.69605e-12 7.94708e-13)
(2.97158e-06 -4.47911e-14 -4.39807e-13)
(2.97156e-06 8.04573e-13 6.01034e-13)
(2.97158e-06 2.84737e-15 -6.2491e-13)
(2.97156e-06 5.80782e-13 8.73851e-13)
(2.97158e-06 -4.01768e-13 -9.57665e-13)
(2.97156e-06 2.8619e-13 1.1889e-12)
(2.97158e-06 -1.13629e-12 -1.34117e-12)
(2.97156e-06 -4.05791e-13 1.52707e-12)
(2.97159e-06 -2.25036e-12 -1.77911e-12)
(2.97156e-06 -9.21589e-13 1.95663e-12)
(2.9716e-06 -3.22507e-12 -2.36801e-12)
(2.97157e-06 1.21787e-12 2.58527e-12)
(2.97161e-06 -3.23524e-13 -3.15373e-12)
(2.97156e-06 2.92433e-11 4.17459e-12)
(2.97151e-06 5.47069e-11 -2.15101e-12)
(2.97127e-06 2.3249e-10 1.24944e-11)
(2.97012e-06 1.91424e-10 2.01007e-11)
(3.04234e-06 -3.73172e-10 1.29824e-10)
(3.04499e-06 -6.28696e-10 -1.33617e-10)
(3.04582e-06 -2.11411e-10 1.13121e-10)
(3.04616e-06 -6.5776e-11 -1.18344e-10)
(3.04611e-06 1.00892e-11 1.17419e-10)
(3.04613e-06 1.32222e-11 -1.20522e-10)
(3.04604e-06 9.58276e-12 1.23424e-10)
(3.04609e-06 1.46529e-11 -1.26998e-10)
(3.04597e-06 1.56631e-12 1.31348e-10)
(3.04606e-06 1.70659e-11 -1.37047e-10)
(3.04591e-06 -1.10024e-11 1.42905e-10)
(3.04606e-06 1.83932e-11 -1.50096e-10)
(3.04589e-06 -2.33525e-11 1.55741e-10)
(3.04604e-06 2.56322e-11 -1.61142e-10)
(3.04596e-06 -2.90875e-11 1.62947e-10)
(3.04588e-06 2.86046e-11 -1.65193e-10)
(3.04623e-06 -2.05089e-11 1.63032e-10)
(3.04549e-06 1.11556e-11 -1.56911e-10)
(3.0467e-06 9.6741e-12 1.44151e-10)
(3.04496e-06 -2.84699e-11 -1.28809e-10)
(3.04718e-06 5.30399e-11 1.17167e-10)
(3.04461e-06 -6.53963e-11 -1.0461e-10)
(3.04731e-06 7.62958e-11 9.02927e-11)
(3.04473e-06 -7.24939e-11 -7.43511e-11)
(3.04699e-06 6.6842e-11 5.92413e-11)
(3.04517e-06 -5.04287e-11 -4.34507e-11)
(3.04651e-06 3.85872e-11 3.0488e-11)
(3.04561e-06 -2.31464e-11 -1.90032e-11)
(3.04616e-06 1.55375e-11 1.14556e-11)
(3.04586e-06 -6.89844e-12 -5.76391e-12)
(3.04601e-06 4.88465e-12 3.0804e-12)
(3.04595e-06 -1.06673e-12 -1.24161e-12)
(3.04596e-06 1.57024e-12 8.00946e-13)
(3.04597e-06 -7.41146e-15 -4.4492e-13)
(3.04595e-06 7.52663e-13 6.02702e-13)
(3.04597e-06 2.70093e-14 -6.26513e-13)
(3.04595e-06 5.36994e-13 8.75598e-13)
(3.04597e-06 -3.7218e-13 -9.5633e-13)
(3.04595e-06 2.61144e-13 1.19093e-12)
(3.04597e-06 -1.06282e-12 -1.34037e-12)
(3.04595e-06 -4.16478e-13 1.52842e-12)
(3.04598e-06 -2.11192e-12 -1.7804e-12)
(3.04595e-06 -9.09066e-13 1.95768e-12)
(3.04599e-06 -3.01078e-12 -2.37154e-12)
(3.04595e-06 1.25314e-12 2.61637e-12)
(3.046e-06 -1.14665e-14 -3.17135e-12)
(3.04594e-06 2.9219e-11 4.21996e-12)
(3.0459e-06 5.4931e-11 -2.21174e-12)
(3.04567e-06 2.29091e-10 1.2965e-11)
(3.04454e-06 1.85985e-10 2.0427e-11)
(3.10567e-06 -3.58372e-10 1.30393e-10)
(3.10823e-06 -6.21098e-10 -1.34588e-10)
(3.10905e-06 -2.13145e-10 1.12984e-10)
(3.10937e-06 -6.59924e-11 -1.18481e-10)
(3.10933e-06 9.45129e-12 1.17622e-10)
(3.10934e-06 1.45941e-11 -1.20519e-10)
(3.10926e-06 9.74455e-12 1.23412e-10)
(3.1093e-06 1.53279e-11 -1.26974e-10)
(3.1092e-06 1.8645e-12 1.31305e-10)
(3.10926e-06 1.67079e-11 -1.36972e-10)
(3.10914e-06 -1.02527e-11 1.42827e-10)
(3.10926e-06 1.69435e-11 -1.50009e-10)
(3.10913e-06 -2.15352e-11 1.55661e-10)
(3.10924e-06 2.29658e-11 -1.61076e-10)
(3.1092e-06 -2.63695e-11 1.629e-10)
(3.10908e-06 2.5643e-11 -1.65101e-10)
(3.10947e-06 -1.84569e-11 1.62935e-10)
(3.10869e-06 1.02722e-11 -1.56894e-10)
(3.10994e-06 8.37332e-12 1.44227e-10)
(3.10816e-06 -2.48857e-11 -1.28906e-10)
(3.11041e-06 4.69155e-11 1.17089e-10)
(3.10782e-06 -5.78414e-11 -1.04621e-10)
(3.11053e-06 6.78479e-11 9.02833e-11)
(3.10794e-06 -6.45034e-11 -7.43769e-11)
(3.11022e-06 5.98453e-11 5.93059e-11)
(3.10839e-06 -4.52319e-11 -4.35413e-11)
(3.10974e-06 3.47137e-11 3.05761e-11)
(3.10883e-06 -2.0786e-11 -1.90691e-11)
(3.10938e-06 1.40122e-11 1.15121e-11)
(3.10908e-06 -6.17812e-12 -5.79928e-12)
(3.10923e-06 4.42794e-12 3.10217e-12)
(3.10917e-06 -9.28044e-13 -1.25444e-12)
(3.10918e-06 1.42586e-12 8.06894e-13)
(3.10919e-06 1.11858e-14 -4.44048e-13)
(3.10917e-06 6.86792e-13 6.04107e-13)
(3.10919e-06 3.82424e-14 -6.27445e-13)
(3.10917e-06 4.83389e-13 8.77232e-13)
(3.10919e-06 -3.44774e-13 -9.55359e-13)
(3.10917e-06 2.37939e-13 1.1932e-12)
(3.10919e-06 -9.77627e-13 -1.34071e-12)
(3.10917e-06 -4.03422e-13 1.52952e-12)
(3.1092e-06 -1.9329e-12 -1.78204e-12)
(3.10917e-06 -8.43816e-13 1.95839e-12)
(3.10921e-06 -2.73894e-12 -2.37569e-12)
(3.10917e-06 1.28373e-12 2.63331e-12)
(3.10922e-06 2.47388e-13 -3.17723e-12)
(3.10916e-06 2.84844e-11 4.26257e-12)
(3.10913e-06 5.36803e-11 -2.27596e-12)
(3.10891e-06 2.20719e-10 1.3445e-11)
(3.1078e-06 1.76771e-10 2.07178e-11)
(3.15915e-06 -3.35152e-10 1.31e-10)
(3.16162e-06 -5.99097e-10 -1.35496e-10)
(3.16242e-06 -2.09024e-10 1.12986e-10)
(3.16271e-06 -6.47328e-11 -1.18606e-10)
(3.16268e-06 9.25934e-12 1.17747e-10)
(3.16268e-06 1.55704e-11 -1.20535e-10)
(3.16262e-06 1.00398e-11 1.23422e-10)
(3.16264e-06 1.55027e-11 -1.2695e-10)
(3.16256e-06 2.25973e-12 1.3125e-10)
(3.1626e-06 1.58388e-11 -1.36911e-10)
(3.16251e-06 -9.29376e-12 1.42761e-10)
(3.1626e-06 1.51504e-11 -1.49932e-10)
(3.1625e-06 -1.94773e-11 1.55594e-10)
(3.16257e-06 2.00807e-11 -1.61032e-10)
(3.16258e-06 -2.34907e-11 1.62885e-10)
(3.16241e-06 2.24905e-11 -1.65029e-10)
(3.16284e-06 -1.63383e-11 1.62867e-10)
(3.16203e-06 9.19447e-12 -1.56915e-10)
(3.1633e-06 7.09592e-12 1.44328e-10)
(3.16151e-06 -2.14238e-11 -1.2901e-10)
(3.16377e-06 4.09189e-11 1.17042e-10)
(3.16117e-06 -5.04091e-11 -1.04649e-10)
(3.16389e-06 5.95133e-11 9.02882e-11)
(3.16129e-06 -5.65111e-11 -7.43912e-11)
(3.16357e-06 5.27309e-11 5.9354e-11)
(3.16174e-06 -3.99844e-11 -4.36219e-11)
(3.16309e-06 3.07509e-11 3.06601e-11)
(3.16218e-06 -1.84289e-11 -1.91274e-11)
(3.16274e-06 1.24426e-11 1.15656e-11)
(3.16243e-06 -5.46848e-12 -5.83255e-12)
(3.16258e-06 3.94457e-12 3.12345e-12)
(3.16252e-06 -8.07019e-13 -1.2658e-12)
(3.16253e-06 1.26338e-12 8.12422e-13)
(3.16254e-06 9.10973e-15 -4.43298e-13)
(3.16252e-06 6.06901e-13 6.05718e-13)
(3.16254e-06 3.46457e-14 -6.26776e-13)
(3.16252e-06 4.1968e-13 8.78841e-13)
(3.16254e-06 -3.18496e-13 -9.55029e-13)
(3.16252e-06 2.13972e-13 1.19656e-12)
(3.16254e-06 -8.76326e-13 -1.34203e-12)
(3.16252e-06 -3.65523e-13 1.53009e-12)
(3.16255e-06 -1.71194e-12 -1.78392e-12)
(3.16252e-06 -7.27619e-13 1.95885e-12)
(3.16256e-06 -2.41016e-12 -2.37967e-12)
(3.16252e-06 1.30489e-12 2.63405e-12)
(3.16257e-06 4.5049e-13 -3.17667e-12)
(3.16252e-06 2.70473e-11 4.30334e-12)
(3.1625e-06 5.10049e-11 -2.34839e-12)
(3.16228e-06 2.07458e-10 1.39575e-11)
(3.16119e-06 1.64072e-10 2.09719e-11)
(3.20386e-06 -3.04348e-10 1.31726e-10)
(3.20623e-06 -5.63375e-10 -1.3629e-10)
(3.20701e-06 -1.99219e-10 1.1309e-10)