/*--------------------------------*- C++ -*----------------------------------*\
| =========                 |                                                 |
| \\      /  F ield         | OpenFOAM: The Open Source CFD Toolbox           |
|  \\    /   O peration     | Version:  2412                                  |
|   \\  /    A nd           | Website:  www.openfoam.com                      |
|    \\/     M anipulation  |                                                 |
\*---------------------------------------------------------------------------*/
FoamFile
{
    version     2.0;
    format      ascii;
    arch        "LSB;label=32;scalar=64";
    class       volVectorField;
    location    "5e-05";
    object      U;
}
// * * * * * * * * * * * * * * * * * * * * * * * * * * * * * * * * * * * * * //

dimensions      [0 1 -1 0 0 0 0];

internalField   nonuniform List<vector> 
14400
(
(5.51326e-06 1.89967e-08 1.89989e-08)
(5.4785e-06 -3.10735e-09 -3.0922e-09)
(5.48074e-06 1.12432e-09 1.1433e-09)
(5.47794e-06 -1.33328e-10 -1.21612e-10)
(5.48017e-06 -5.53433e-10 -5.40873e-10)
(5.48238e-06 -9.53646e-11 -8.83441e-11)
(5.48304e-06 -8.41237e-11 -8.08537e-11)
(5.48369e-06 -6.94886e-11 -6.74325e-11)
(5.48417e-06 -1.2082e-11 -1.17741e-11)
(5.48437e-06 1.02301e-11 9.79503e-12)
(5.48445e-06 1.3637e-11 1.28688e-11)
(5.48449e-06 1.61943e-11 1.48211e-11)
(5.4845e-06 1.55698e-11 1.44e-11)
(5.48449e-06 1.38619e-11 1.33262e-11)
(5.48447e-06 1.1921e-11 1.14679e-11)
(5.48446e-06 9.85666e-12 9.46268e-12)
(5.48445e-06 8.04372e-12 7.71583e-12)
(5.48444e-06 6.47392e-12 6.22292e-12)
(5.48443e-06 5.14473e-12 4.96043e-12)
(5.48443e-06 3.94739e-12 3.86844e-12)
(5.48442e-06 2.92301e-12 2.85984e-12)
(5.48442e-06 2.04364e-12 2.16071e-12)
(5.48442e-06 1.35301e-12 1.48934e-12)
(5.48442e-06 7.99449e-13 9.18473e-13)
(5.48442e-06 3.99973e-13 5.10324e-13)
(5.48442e-06 1.39486e-13 2.43247e-13)
(5.48442e-06 -2.31466e-14 7.69038e-14)
(5.48442e-06 -1.04019e-13 -1.02031e-14)
(5.48442e-06 -1.14872e-13 -3.45988e-14)
(5.48443e-06 -8.08853e-14 -8.92759e-15)
(5.48443e-06 -1.72216e-14 4.6361e-14)
(5.48443e-06 6.47431e-14 1.19359e-13)
(5.48443e-06 1.59515e-13 2.01317e-13)
(5.48443e-06 2.56267e-13 2.85965e-13)
(5.48444e-06 3.5331e-13 3.74809e-13)
(5.48444e-06 4.46438e-13 4.64549e-13)
(5.48444e-06 5.31611e-13 5.49535e-13)
(5.48444e-06 6.05694e-13 6.21539e-13)
(5.48444e-06 6.69688e-13 6.85193e-13)
(5.48445e-06 7.23763e-13 7.37452e-13)
(5.48445e-06 7.6804e-13 7.80153e-13)
(5.48445e-06 8.0232e-13 8.13338e-13)
(5.48445e-06 8.26918e-13 8.37306e-13)
(5.48445e-06 8.43819e-13 8.53913e-13)
(5.48445e-06 8.541e-13 8.63909e-13)
(5.48446e-06 8.58289e-13 8.67896e-13)
(5.48446e-06 8.56902e-13 8.66386e-13)
(5.48446e-06 8.50605e-13 8.60029e-13)
(5.48446e-06 8.39948e-13 8.49274e-13)
(5.48446e-06 8.25771e-13 8.35034e-13)
(5.48446e-06 8.08579e-13 8.17695e-13)
(5.48446e-06 7.88946e-13 7.97955e-13)
(5.48446e-06 7.67162e-13 7.76073e-13)
(5.48446e-06 7.43968e-13 7.52838e-13)
(5.48447e-06 7.19973e-13 7.28705e-13)
(5.48447e-06 6.956e-13 7.04179e-13)
(5.48447e-06 6.70631e-13 6.7901e-13)
(5.48447e-06 6.45278e-13 6.53477e-13)
(5.48447e-06 6.19436e-13 6.27376e-13)
(5.48447e-06 5.93567e-13 6.01283e-13)
(5.48447e-06 5.67801e-13 5.75252e-13)
(5.48447e-06 5.42299e-13 5.49502e-13)
(5.48447e-06 5.17087e-13 5.24014e-13)
(5.48447e-06 4.92508e-13 4.99246e-13)
(5.48447e-06 4.68497e-13 4.74915e-13)
(5.48447e-06 4.45244e-13 4.5125e-13)
(5.48447e-06 4.22527e-13 4.28065e-13)
(5.48447e-06 4.00418e-13 4.05696e-13)
(5.48447e-06 3.78621e-13 3.84006e-13)
(5.48447e-06 3.56622e-13 3.63359e-13)
(5.48447e-06 3.35961e-13 3.42332e-13)
(5.48447e-06 3.15829e-13 3.22826e-13)
(5.48447e-06 2.95771e-13 3.03488e-13)
(5.48447e-06 2.76686e-13 2.84187e-13)
(5.48447e-06 2.59087e-13 2.62744e-13)
(5.48447e-06 2.39801e-13 2.43063e-13)
(5.48447e-06 2.20957e-13 2.23718e-13)
(5.48447e-06 2.02938e-13 2.04726e-13)
(5.48447e-06 1.8517e-13 1.86824e-13)
(5.48447e-06 1.68059e-13 1.70432e-13)
(5.48447e-06 1.52634e-13 1.55675e-13)
(5.48447e-06 1.3957e-13 1.43195e-13)
(5.48447e-06 1.28981e-13 1.32476e-13)
(5.48447e-06 1.20953e-13 1.23435e-13)
(5.48447e-06 1.14332e-13 1.15946e-13)
(5.48447e-06 1.05987e-13 1.08448e-13)
(5.48447e-06 9.49988e-14 9.76329e-14)
(5.48447e-06 7.86401e-14 8.06548e-14)
(5.48447e-06 5.84272e-14 5.91959e-14)
(5.48447e-06 4.24626e-14 4.31943e-14)
(5.48447e-06 3.26305e-14 3.3331e-14)
(5.48447e-06 5.7286e-14 5.33397e-14)
(5.48447e-06 2.49157e-13 2.38598e-13)
(5.48446e-06 6.78388e-13 6.63434e-13)
(5.48446e-06 8.1299e-13 8.00861e-13)
(5.48445e-06 1.65179e-12 1.66773e-12)
(5.48443e-06 5.56859e-12 5.66306e-12)
(5.48441e-06 2.16687e-12 2.34869e-12)
(5.48437e-06 1.07814e-11 1.09767e-11)
(5.48426e-06 3.40447e-11 3.41685e-11)
(1.15456e-05 3.83592e-08 8.94363e-08)
(1.14835e-05 -1.3268e-09 -1.74482e-08)
(1.15017e-05 3.12931e-09 2.31732e-09)
(1.14925e-05 -4.11115e-10 1.65213e-09)
(1.14964e-05 -1.96246e-09 -2.19728e-09)
(1.15005e-05 -9.09323e-10 -3.1383e-10)
(1.15011e-05 -5.91953e-10 2.40463e-11)
(1.15021e-05 -4.43603e-10 -1.49689e-10)
(1.15029e-05 -2.23736e-10 -5.13493e-11)
(1.15032e-05 -8.31352e-11 3.49267e-11)
(1.15034e-05 -2.47135e-11 4.52004e-11)
(1.15035e-05 5.39399e-12 4.04929e-11)
(1.15035e-05 2.20263e-11 3.82786e-11)
(1.15035e-05 2.67804e-11 3.50443e-11)
(1.15035e-05 2.49185e-11 2.96698e-11)
(1.15035e-05 2.10999e-11 2.40572e-11)
(1.15035e-05 1.72008e-11 1.87887e-11)
(1.15034e-05 1.37402e-11 1.4119e-11)
(1.15034e-05 1.09609e-11 1.00748e-11)
(1.15034e-05 8.84373e-12 6.48089e-12)
(1.15034e-05 7.38232e-12 3.35544e-12)
(1.15034e-05 6.41133e-12 7.77386e-13)
(1.15034e-05 5.72206e-12 -1.64765e-12)
(1.15034e-05 5.31379e-12 -3.52615e-12)
(1.15034e-05 5.10046e-12 -4.78185e-12)
(1.15034e-05 5.02694e-12 -5.63251e-12)
(1.15034e-05 5.02633e-12 -6.21866e-12)
(1.15034e-05 5.06057e-12 -6.54242e-12)
(1.15034e-05 5.11837e-12 -6.62465e-12)
(1.15034e-05 5.18276e-12 -6.50208e-12)
(1.15034e-05 5.24453e-12 -6.2643e-12)
(1.15035e-05 5.3049e-12 -5.93722e-12)
(1.15035e-05 5.3592e-12 -5.54607e-12)
(1.15035e-05 5.40387e-12 -5.12186e-12)
(1.15035e-05 5.43747e-12 -4.68513e-12)
(1.15035e-05 5.46114e-12 -4.25499e-12)
(1.15035e-05 5.47094e-12 -3.84068e-12)
(1.15035e-05 5.45972e-12 -3.45588e-12)
(1.15035e-05 5.42967e-12 -3.11003e-12)
(1.15035e-05 5.38e-12 -2.81312e-12)
(1.15035e-05 5.31129e-12 -2.54499e-12)
(1.15035e-05 5.22489e-12 -2.30774e-12)
(1.15035e-05 5.12262e-12 -2.09144e-12)
(1.15035e-05 5.00653e-12 -1.8856e-12)
(1.15035e-05 4.87819e-12 -1.69339e-12)
(1.15035e-05 4.73851e-12 -1.51763e-12)
(1.15035e-05 4.58948e-12 -1.35684e-12)
(1.15035e-05 4.43297e-12 -1.21007e-12)
(1.15035e-05 4.27052e-12 -1.07565e-12)
(1.15035e-05 4.10344e-12 -9.52716e-13)
(1.15035e-05 3.93316e-12 -8.40211e-13)
(1.15035e-05 3.76102e-12 -7.37631e-13)
(1.15035e-05 3.58821e-12 -6.4329e-13)
(1.15035e-05 3.41593e-12 -5.56121e-13)
(1.15035e-05 3.24498e-12 -4.75186e-13)
(1.15035e-05 3.07601e-12 -4.01092e-13)
(1.15035e-05 2.90999e-12 -3.3284e-13)
(1.15035e-05 2.74748e-12 -2.69908e-13)
(1.15035e-05 2.58851e-12 -2.12776e-13)
(1.15035e-05 2.43305e-12 -1.61096e-13)
(1.15035e-05 2.28147e-12 -1.13438e-13)
(1.15035e-05 2.13462e-12 -6.96814e-14)
(1.15035e-05 1.99302e-12 -2.90403e-14)
(1.15035e-05 1.85651e-12 8.04187e-15)
(1.15035e-05 1.725e-12 4.20267e-14)
(1.15035e-05 1.59859e-12 7.26063e-14)
(1.15036e-05 1.47731e-12 1.00317e-13)
(1.15036e-05 1.36116e-12 1.25178e-13)
(1.15036e-05 1.25013e-12 1.47848e-13)
(1.15036e-05 1.14491e-12 1.68445e-13)
(1.15036e-05 1.0436e-12 1.87119e-13)
(1.15036e-05 9.46857e-13 2.04778e-13)
(1.15036e-05 8.54372e-13 2.20742e-13)
(1.15036e-05 7.67065e-13 2.34794e-13)
(1.15036e-05 6.82047e-13 2.50738e-13)
(1.15036e-05 6.01836e-13 2.6436e-13)
(1.15036e-05 5.29109e-13 2.75232e-13)
(1.15036e-05 4.65218e-13 2.83578e-13)
(1.15036e-05 4.11148e-13 2.9049e-13)
(1.15036e-05 3.68159e-13 2.95532e-13)
(1.15036e-05 3.38092e-13 3.0023e-13)
(1.15036e-05 3.20667e-13 3.04224e-13)
(1.15036e-05 3.13574e-13 3.07526e-13)
(1.15036e-05 3.12618e-13 3.0845e-13)
(1.15036e-05 3.09577e-13 3.04727e-13)
(1.15036e-05 2.94302e-13 2.94757e-13)
(1.15036e-05 2.55689e-13 2.75918e-13)
(1.15036e-05 1.88285e-13 2.46959e-13)
(1.15035e-05 1.09003e-13 2.12863e-13)
(1.15035e-05 4.24129e-14 1.83804e-13)
(1.15035e-05 2.65195e-14 1.46727e-13)
(1.15035e-05 2.15216e-13 2.56197e-13)
(1.15035e-05 1.08256e-12 9.87545e-13)
(1.15035e-05 2.67303e-12 1.9027e-12)
(1.15035e-05 4.54437e-12 1.26448e-12)
(1.15035e-05 9.99383e-12 6.79605e-12)
(1.15035e-05 2.05394e-11 2.00523e-11)
(1.15035e-05 2.00792e-11 -4.99324e-12)
(1.15034e-05 4.4767e-11 5.73045e-11)
(1.15032e-05 7.71636e-11 1.37382e-10)
(1.5311e-05 2.47622e-08 1.01018e-07)
(1.52455e-05 7.64244e-10 -3.2711e-08)
(1.52785e-05 3.69722e-09 4.71936e-09)
(1.52628e-05 -8.5989e-10 1.91659e-09)
(1.5268e-05 -2.11449e-09 -3.53935e-09)
(1.52729e-05 -1.19124e-09 -3.4971e-10)
(1.52729e-05 -8.49416e-10 1.3996e-10)
(1.52739e-05 -5.91578e-10 -1.85482e-10)
(1.52748e-05 -2.92405e-10 -6.49955e-11)
(1.52751e-05 -9.82882e-11 5.18663e-11)
(1.52753e-05 -9.39092e-12 5.86268e-11)
(1.52754e-05 3.5261e-11 4.70871e-11)
(1.52755e-05 5.50498e-11 4.25193e-11)
(1.52755e-05 5.80028e-11 3.74226e-11)
(1.52755e-05 5.22686e-11 3.09024e-11)
(1.52755e-05 4.46247e-11 2.48183e-11)
(1.52756e-05 3.68284e-11 1.95271e-11)
(1.52756e-05 2.98308e-11 1.50283e-11)
(1.52756e-05 2.39038e-11 1.09775e-11)
(1.52756e-05 1.91658e-11 7.41794e-12)
(1.52756e-05 1.55472e-11 4.40761e-12)
(1.52756e-05 1.29429e-11 1.88177e-12)
(1.52756e-05 1.10973e-11 -2.62731e-13)
(1.52756e-05 9.85507e-12 -1.72132e-12)
(1.52756e-05 9.05329e-12 -2.59086e-12)
(1.52756e-05 8.56694e-12 -3.20532e-12)
(1.52756e-05 8.34434e-12 -3.6113e-12)
(1.52756e-05 8.316e-12 -3.83402e-12)
(1.52756e-05 8.40785e-12 -3.89886e-12)
(1.52756e-05 8.57148e-12 -3.83895e-12)
(1.52756e-05 8.77817e-12 -3.67763e-12)
(1.52756e-05 8.99346e-12 -3.33152e-12)
(1.52756e-05 9.20805e-12 -2.92814e-12)
(1.52756e-05 9.41449e-12 -2.51884e-12)
(1.52756e-05 9.59738e-12 -2.11826e-12)
(1.52757e-05 9.75114e-12 -1.77086e-12)
(1.52757e-05 9.86952e-12 -1.45142e-12)
(1.52757e-05 9.9439e-12 -1.15894e-12)
(1.52757e-05 9.97247e-12 -8.91807e-13)
(1.52757e-05 9.94934e-12 -6.54772e-13)
(1.52757e-05 9.88258e-12 -4.47363e-13)
(1.52757e-05 9.77644e-12 -2.65265e-13)
(1.52757e-05 9.63297e-12 -1.06385e-13)
(1.52757e-05 9.45412e-12 3.04564e-14)
(1.52757e-05 9.24384e-12 1.50508e-13)
(1.52757e-05 9.00669e-12 2.5235e-13)
(1.52757e-05 8.748e-12 3.37505e-13)
(1.52757e-05 8.47178e-12 4.08991e-13)
(1.52757e-05 8.18132e-12 4.68527e-13)
(1.52757e-05 7.87953e-12 5.16866e-13)
(1.52757e-05 7.56949e-12 5.55465e-13)
(1.52757e-05 7.2539e-12 5.85654e-13)
(1.52757e-05 6.93521e-12 6.08698e-13)
(1.52757e-05 6.61559e-12 6.25665e-13)
(1.52757e-05 6.29638e-12 6.35124e-13)
(1.52757e-05 5.97963e-12 6.38208e-13)
(1.52757e-05 5.66818e-12 6.38748e-13)
(1.52758e-05 5.36279e-12 6.38097e-13)
(1.52758e-05 5.06361e-12 6.35192e-13)
(1.52758e-05 4.77107e-12 6.29685e-13)
(1.52758e-05 4.48635e-12 6.22396e-13)
(1.52758e-05 4.2104e-12 6.1395e-13)
(1.52758e-05 3.94319e-12 6.04521e-13)
(1.52758e-05 3.68514e-12 5.93473e-13)
(1.52758e-05 3.43661e-12 5.81186e-13)
(1.52758e-05 3.19757e-12 5.67728e-13)
(1.52758e-05 2.96809e-12 5.53306e-13)
(1.52758e-05 2.74823e-12 5.38173e-13)
(1.52758e-05 2.53786e-12 5.22427e-13)
(1.52758e-05 2.33745e-12 5.07313e-13)
(1.52758e-05 2.14434e-12 4.92991e-13)
(1.52758e-05 1.95894e-12 4.79838e-13)
(1.52758e-05 1.78039e-12 4.66998e-13)
(1.52758e-05 1.60926e-12 4.5407e-13)
(1.52758e-05 1.44633e-12 4.44933e-13)
(1.52758e-05 1.29452e-12 4.35327e-13)
(1.52758e-05 1.15565e-12 4.24045e-13)
(1.52758e-05 1.03159e-12 4.10536e-13)
(1.52758e-05 9.24647e-13 3.95639e-13)
(1.52758e-05 8.36816e-13 3.81042e-13)
(1.52758e-05 7.70292e-13 3.67592e-13)
(1.52758e-05 7.25241e-13 3.56884e-13)
(1.52758e-05 6.98642e-13 3.46211e-13)
(1.52758e-05 6.85032e-13 3.37197e-13)
(1.52758e-05 6.73152e-13 3.28154e-13)
(1.52758e-05 6.46584e-13 3.10664e-13)
(1.52758e-05 5.84275e-13 2.79196e-13)
(1.52758e-05 4.75792e-13 2.38338e-13)
(1.52758e-05 3.47567e-13 1.89757e-13)
(1.52758e-05 2.45905e-13 1.20795e-13)
(1.52758e-05 2.46117e-13 -2.40992e-14)
(1.52758e-05 5.72937e-13 -5.4334e-14)
(1.52758e-05 1.83662e-12 6.98057e-13)
(1.52758e-05 4.28984e-12 1.45097e-12)
(1.52758e-05 7.71102e-12 -7.22648e-13)
(1.52758e-05 1.50441e-11 5.9845e-12)
(1.52757e-05 2.77576e-11 2.46056e-11)
(1.52757e-05 3.27687e-11 -1.89596e-11)
(1.52756e-05 5.25676e-11 6.05297e-11)
(1.52755e-05 6.16401e-11 1.55845e-10)
(1.77472e-05 1.80736e-08 1.0586e-07)
(1.76794e-05 4.8516e-09 -3.2575e-08)
(1.77161e-05 2.76073e-09 7.23454e-09)
(1.76983e-05 -8.25196e-10 1.5019e-09)
(1.77052e-05 -1.59499e-09 -3.98915e-09)
(1.77103e-05 -1.15052e-09 -1.81271e-10)
(1.77099e-05 -9.00946e-10 1.82049e-10)
(1.77108e-05 -6.1423e-10 -2.38633e-10)
(1.77117e-05 -3.13866e-10 -8.03925e-11)
(1.77119e-05 -1.21071e-10 5.98738e-11)
(1.77121e-05 -2.32207e-11 6.3394e-11)
(1.77122e-05 2.8637e-11 4.70058e-11)
(1.77123e-05 5.13268e-11 4.14354e-11)
(1.77123e-05 5.59734e-11 3.72813e-11)
(1.77123e-05 5.16596e-11 3.11703e-11)
(1.77123e-05 4.42203e-11 2.4887e-11)
(1.77124e-05 3.62854e-11 1.95178e-11)
(1.77124e-05 2.9026e-11 1.49733e-11)
(1.77124e-05 2.28632e-11 1.08464e-11)
(1.77124e-05 1.79052e-11 7.24205e-12)
(1.77124e-05 1.41207e-11 4.21596e-12)
(1.77124e-05 1.13366e-11 1.77711e-12)
(1.77124e-05 9.41474e-12 1.66596e-13)
(1.77124e-05 8.0913e-12 -1.10873e-12)
(1.77124e-05 7.22532e-12 -2.09631e-12)
(1.77124e-05 6.69368e-12 -2.82701e-12)
(1.77124e-05 6.46569e-12 -3.23372e-12)
(1.77125e-05 6.45958e-12 -3.40439e-12)
(1.77125e-05 6.5969e-12 -3.41983e-12)
(1.77125e-05 6.81527e-12 -3.35152e-12)
(1.77125e-05 7.07798e-12 -3.19936e-12)
(1.77125e-05 7.35945e-12 -2.99469e-12)
(1.77125e-05 7.64795e-12 -2.76051e-12)
(1.77125e-05 7.93462e-12 -2.5243e-12)
(1.77125e-05 8.18718e-12 -2.26496e-12)
(1.77125e-05 8.39168e-12 -1.91381e-12)
(1.77125e-05 8.56215e-12 -1.60231e-12)
(1.77125e-05 8.69683e-12 -1.34455e-12)
(1.77125e-05 8.78633e-12 -1.09511e-12)
(1.77125e-05 8.82822e-12 -8.42099e-13)
(1.77125e-05 8.81527e-12 -6.158e-13)
(1.77125e-05 8.75893e-12 -4.16962e-13)
(1.77125e-05 8.6619e-12 -2.44365e-13)
(1.77125e-05 8.52742e-12 -9.39433e-14)
(1.77126e-05 8.36071e-12 4.00175e-14)
(1.77126e-05 8.16563e-12 1.55738e-13)
(1.77126e-05 7.94797e-12 2.53708e-13)
(1.77126e-05 7.71163e-12 3.36135e-13)
(1.77126e-05 7.45969e-12 4.05102e-13)
(1.77126e-05 7.19532e-12 4.61981e-13)
(1.77126e-05 6.92152e-12 5.08251e-13)
(1.77126e-05 6.6409e-12 5.4524e-13)
(1.77126e-05 6.35572e-12 5.74527e-13)
(1.77126e-05 6.06832e-12 5.96891e-13)
(1.77126e-05 5.78085e-12 6.09428e-13)
(1.77126e-05 5.49532e-12 6.14077e-13)
(1.77126e-05 5.2131e-12 6.17402e-13)
(1.77126e-05 4.93519e-12 6.19922e-13)
(1.77126e-05 4.6624e-12 6.20207e-13)
(1.77126e-05 4.3958e-12 6.17087e-13)
(1.77126e-05 4.13623e-12 6.11651e-13)
(1.77126e-05 3.88376e-12 6.03475e-13)
(1.77126e-05 3.63827e-12 5.9152e-13)
(1.77126e-05 3.40146e-12 5.78474e-13)
(1.77126e-05 3.17376e-12 5.65836e-13)
(1.77126e-05 2.95488e-12 5.52578e-13)
(1.77126e-05 2.74452e-12 5.38326e-13)
(1.77126e-05 2.54291e-12 5.23805e-13)
(1.77126e-05 2.34992e-12 5.09408e-13)
(1.77126e-05 2.1642e-12 4.95364e-13)
(1.77126e-05 1.98608e-12 4.81368e-13)
(1.77126e-05 1.81521e-12 4.67435e-13)
(1.77126e-05 1.65094e-12 4.53548e-13)
(1.77126e-05 1.49341e-12 4.39439e-13)
(1.77126e-05 1.34475e-12 4.25412e-13)
(1.77126e-05 1.20801e-12 4.09508e-13)
(1.77126e-05 1.08572e-12 3.90888e-13)
(1.77127e-05 9.80258e-13 3.72166e-13)
(1.77127e-05 8.95057e-13 3.54807e-13)
(1.77127e-05 8.33798e-13 3.39707e-13)
(1.77127e-05 7.99964e-13 3.26681e-13)
(1.77127e-05 7.92596e-13 3.17178e-13)
(1.77127e-05 8.10653e-13 3.11182e-13)
(1.77127e-05 8.4666e-13 3.0809e-13)
(1.77126e-05 8.85847e-13 3.05576e-13)
(1.77126e-05 9.0584e-13 2.91404e-13)
(1.77126e-05 8.79706e-13 2.57594e-13)
(1.77126e-05 7.90421e-13 2.08313e-13)
(1.77126e-05 6.56189e-13 1.53084e-13)
(1.77126e-05 5.43962e-13 7.66158e-14)
(1.77126e-05 5.18645e-13 -9.31641e-14)
(1.77126e-05 8.55987e-13 -9.37269e-14)
(1.77126e-05 2.0752e-12 8.80945e-13)
(1.77126e-05 4.61001e-12 2.0486e-12)
(1.77126e-05 8.61451e-12 -1.41884e-13)
(1.77126e-05 1.58522e-11 7.42919e-12)
(1.77126e-05 2.709e-11 3.09697e-11)
(1.77126e-05 3.58228e-11 -1.21907e-11)
(1.77125e-05 5.16356e-11 7.5397e-11)
(1.77123e-05 4.9483e-11 1.60778e-10)
(1.92278e-05 1.11671e-08 1.10508e-07)
(1.91581e-05 2.96652e-09 -3.335e-08)
(1.91974e-05 8.69156e-10 6.52218e-09)
(1.91797e-05 -6.92599e-10 8.22884e-10)
(1.91872e-05 -1.08784e-09 -4.187e-09)
(1.91923e-05 -8.82542e-10 -1.4786e-10)
(1.91916e-05 -6.79719e-10 1.49719e-10)
(1.91923e-05 -4.40705e-10 -2.74604e-10)
(1.91931e-05 -2.23495e-10 -7.93465e-11)
(1.91933e-05 -8.64303e-11 7.11021e-11)
(1.91934e-05 -1.58325e-11 6.79211e-11)
(1.91935e-05 2.18171e-11 4.67403e-11)
(1.91935e-05 3.79861e-11 4.11105e-11)
(1.91936e-05 4.10914e-11 3.79897e-11)
(1.91936e-05 3.73883e-11 3.17552e-11)
(1.91936e-05 3.12643e-11 2.54661e-11)
(1.91937e-05 2.49113e-11 2.01061e-11)
(1.91937e-05 1.92907e-11 1.5485e-11)
(1.91937e-05 1.47412e-11 1.12059e-11)
(1.91937e-05 1.12516e-11 7.48958e-12)
(1.91937e-05 8.67896e-12 4.35216e-12)
(1.91937e-05 6.85977e-12 1.81972e-12)
(1.91937e-05 5.56127e-12 6.11298e-14)
(1.91938e-05 4.72438e-12 -1.43589e-12)
(1.91938e-05 4.28644e-12 -2.59658e-12)
(1.91938e-05 4.10196e-12 -3.41775e-12)
(1.91938e-05 4.1151e-12 -3.86031e-12)
(1.91938e-05 4.24753e-12 -4.01368e-12)
(1.91938e-05 4.44715e-12 -3.96774e-12)
(1.91938e-05 4.67998e-12 -3.79256e-12)
(1.91938e-05 4.92624e-12 -3.53515e-12)
(1.91938e-05 5.19126e-12 -3.32369e-12)
(1.91938e-05 5.45423e-12 -3.07854e-12)
(1.91938e-05 5.69852e-12 -2.7999e-12)
(1.91938e-05 5.91522e-12 -2.50589e-12)
(1.91938e-05 6.0917e-12 -2.18728e-12)
(1.91938e-05 6.23699e-12 -1.87234e-12)
(1.91938e-05 6.35081e-12 -1.56269e-12)
(1.91938e-05 6.42704e-12 -1.27045e-12)
(1.91939e-05 6.46259e-12 -1.00216e-12)
(1.91939e-05 6.46094e-12 -7.59809e-13)
(1.91939e-05 6.42478e-12 -5.4583e-13)
(1.91939e-05 6.35771e-12 -3.57267e-13)
(1.91939e-05 6.26281e-12 -1.93002e-13)
(1.91939e-05 6.14342e-12 -5.04421e-14)
(1.91939e-05 6.00185e-12 7.31885e-14)
(1.91939e-05 5.84194e-12 1.78558e-13)
(1.91939e-05 5.66669e-12 2.66835e-13)
(1.91939e-05 5.47898e-12 3.41044e-13)
(1.91939e-05 5.2814e-12 4.03045e-13)
(1.91939e-05 5.07647e-12 4.54672e-13)
(1.91939e-05 4.86619e-12 4.96452e-13)
(1.91939e-05 4.65283e-12 5.29626e-13)
(1.91939e-05 4.43801e-12 5.5597e-13)
(1.91939e-05 4.22427e-12 5.759e-13)
(1.9194e-05 4.01272e-12 5.89054e-13)
(1.9194e-05 3.80308e-12 5.98232e-13)
(1.9194e-05 3.59612e-12 6.04305e-13)
(1.9194e-05 3.39321e-12 6.07128e-13)
(1.9194e-05 3.19514e-12 6.06728e-13)
(1.9194e-05 3.00238e-12 6.04484e-13)
(1.9194e-05 2.81521e-12 5.97958e-13)
(1.9194e-05 2.63451e-12 5.86758e-13)
(1.9194e-05 2.46021e-12 5.75508e-13)
(1.9194e-05 2.29251e-12 5.64644e-13)
(1.9194e-05 2.13188e-12 5.49393e-13)
(1.9194e-05 1.97753e-12 5.32215e-13)
(1.9194e-05 1.82934e-12 5.14778e-13)
(1.9194e-05 1.68756e-12 4.99374e-13)
(1.9194e-05 1.55141e-12 4.85044e-13)
(1.9194e-05 1.42093e-12 4.70993e-13)
(1.9194e-05 1.29605e-12 4.56077e-13)
(1.9194e-05 1.17665e-12 4.40423e-13)
(1.9194e-05 1.06276e-12 4.24162e-13)
(1.9194e-05 9.56113e-13 4.08193e-13)
(1.9194e-05 8.59972e-13 3.9215e-13)
(1.9194e-05 7.77969e-13 3.75942e-13)
(1.9194e-05 7.12584e-13 3.59564e-13)
(1.9194e-05 6.68307e-13 3.43907e-13)
(1.9194e-05 6.49659e-13 3.28331e-13)
(1.9194e-05 6.61212e-13 3.16247e-13)
(1.9194e-05 7.05086e-13 3.08404e-13)
(1.9194e-05 7.80138e-13 3.03111e-13)
(1.9194e-05 8.79529e-13 3.00679e-13)
(1.9194e-05 9.88429e-13 3.00923e-13)
(1.9194e-05 1.08417e-12 2.94745e-13)
(1.9194e-05 1.13644e-12 2.60205e-13)
(1.9194e-05 1.11606e-12 2.02784e-13)
(1.9194e-05 1.01003e-12 1.38525e-13)
(1.9194e-05 8.62052e-13 3.71117e-14)
(1.9194e-05 6.92269e-13 -1.58203e-13)
(1.9194e-05 6.94831e-13 -2.305e-13)
(1.9194e-05 1.17884e-12 7.33973e-13)
(1.9194e-05 2.48628e-12 1.96467e-12)
(1.9194e-05 4.97913e-12 -3.06571e-13)
(1.9194e-05 9.59402e-12 7.51825e-12)
(1.9194e-05 1.60467e-11 3.15881e-11)
(1.9194e-05 2.14991e-11 -1.34966e-11)
(1.91939e-05 3.15898e-11 8.57558e-11)
(1.91937e-05 2.90927e-11 1.6507e-10)
(1.99307e-05 3.61042e-09 1.11779e-07)
(1.98603e-05 8.35443e-10 -3.44396e-08)
(1.99014e-05 2.1919e-10 6.09943e-09)
(1.98836e-05 -2.16121e-10 7.47266e-10)
(1.98913e-05 -3.62747e-10 -4.18356e-09)
(1.98963e-05 -3.02203e-10 -1.33565e-10)
(1.98954e-05 -2.1844e-10 1.38222e-10)
(1.98961e-05 -1.26751e-10 -2.7884e-10)
(1.98969e-05 -5.19889e-11 -6.77559e-11)
(1.9897e-05 -7.76746e-12 8.0686e-11)
(1.9897e-05 1.2302e-11 7.14452e-11)
(1.98971e-05 2.11717e-11 4.75093e-11)
(1.98972e-05 2.32882e-11 4.1863e-11)
(1.98972e-05 2.06704e-11 4.05261e-11)
(1.98973e-05 1.63981e-11 3.40735e-11)
(1.98973e-05 1.22071e-11 2.67214e-11)
(1.98973e-05 8.61371e-12 2.05787e-11)
(1.98973e-05 5.81458e-12 1.5604e-11)
(1.98974e-05 3.80108e-12 1.12758e-11)
(1.98974e-05 2.45013e-12 7.57859e-12)
(1.98974e-05 1.62652e-12 4.47684e-12)
(1.98974e-05 1.13945e-12 1.94896e-12)
(1.98974e-05 8.28932e-13 -7.18601e-14)
(1.98974e-05 7.48086e-13 -1.62489e-12)
(1.98974e-05 8.5825e-13 -2.69421e-12)
(1.98974e-05 1.07015e-12 -3.39263e-12)
(1.98974e-05 1.30732e-12 -3.781e-12)
(1.98974e-05 1.55173e-12 -3.95573e-12)
(1.98974e-05 1.78906e-12 -3.98119e-12)
(1.98975e-05 2.01754e-12 -3.89959e-12)
(1.98975e-05 2.23836e-12 -3.73733e-12)
(1.98975e-05 2.45463e-12 -3.49198e-12)
(1.98975e-05 2.65498e-12 -3.15392e-12)
(1.98975e-05 2.82606e-12 -2.75663e-12)
(1.98975e-05 2.97584e-12 -2.37274e-12)
(1.98975e-05 3.1088e-12 -2.09295e-12)
(1.98975e-05 3.20839e-12 -1.81121e-12)
(1.98975e-05 3.2729e-12 -1.50378e-12)
(1.98975e-05 3.30616e-12 -1.21024e-12)
(1.98975e-05 3.31971e-12 -9.39525e-13)
(1.98975e-05 3.32178e-12 -6.98584e-13)
(1.98975e-05 3.30544e-12 -4.85457e-13)
(1.98975e-05 3.27269e-12 -2.98282e-13)
(1.98976e-05 3.22513e-12 -1.35967e-13)
(1.98976e-05 3.16368e-12 4.28804e-15)
(1.98976e-05 3.08984e-12 1.26404e-13)
(1.98976e-05 3.00428e-12 2.29262e-13)
(1.98976e-05 2.90924e-12 3.15057e-13)
(1.98976e-05 2.80712e-12 3.86612e-13)
(1.98976e-05 2.69988e-12 4.46509e-13)
(1.98976e-05 2.58885e-12 4.95617e-13)
(1.98976e-05 2.47491e-12 5.34476e-13)
(1.98976e-05 2.36018e-12 5.65121e-13)
(1.98976e-05 2.24529e-12 5.88902e-13)
(1.98976e-05 2.13089e-12 6.07062e-13)
(1.98976e-05 2.01797e-12 6.2055e-13)
(1.98976e-05 1.90678e-12 6.28633e-13)
(1.98976e-05 1.79803e-12 6.32356e-13)
(1.98976e-05 1.69228e-12 6.32288e-13)
(1.98976e-05 1.58965e-12 6.29803e-13)
(1.98976e-05 1.4899e-12 6.24509e-13)
(1.98977e-05 1.39361e-12 6.16211e-13)
(1.98977e-05 1.30161e-12 6.05114e-13)
(1.98977e-05 1.21281e-12 5.92895e-13)
(1.98977e-05 1.12699e-12 5.80732e-13)
(1.98977e-05 1.04434e-12 5.68342e-13)
(1.98977e-05 9.64543e-13 5.53132e-13)
(1.98977e-05 8.87519e-13 5.36653e-13)
(1.98977e-05 8.13317e-13 5.21668e-13)
(1.98977e-05 7.42373e-13 5.08493e-13)
(1.98977e-05 6.74345e-13 4.95937e-13)
(1.98977e-05 6.09043e-13 4.8274e-13)
(1.98977e-05 5.46603e-13 4.68198e-13)
(1.98977e-05 4.87738e-13 4.53655e-13)
(1.98977e-05 4.34173e-13 4.39355e-13)
(1.98977e-05 3.88966e-13 4.25405e-13)
(1.98977e-05 3.55651e-13 4.10785e-13)
(1.98977e-05 3.3942e-13 3.8961e-13)
(1.98977e-05 3.43612e-13 3.64152e-13)
(1.98977e-05 3.72914e-13 3.34441e-13)
(1.98977e-05 4.3025e-13 3.09984e-13)
(1.98977e-05 5.24008e-13 2.97657e-13)
(1.98977e-05 6.5412e-13 2.90107e-13)
(1.98977e-05 8.17631e-13 2.8622e-13)
(1.98977e-05 1.00303e-12 2.84128e-13)
(1.98977e-05 1.18966e-12 2.81155e-13)
(1.98977e-05 1.34788e-12 2.51166e-13)
(1.98977e-05 1.43915e-12 1.91756e-13)
(1.98977e-05 1.41104e-12 1.26961e-13)
(1.98977e-05 1.24304e-12 1.41616e-14)
(1.98977e-05 9.01087e-13 -1.69555e-13)
(1.98977e-05 4.04298e-13 -2.82893e-13)
(1.98977e-05 -1.58701e-13 7.46911e-13)
(1.98977e-05 -6.71971e-13 2.00442e-12)
(1.98977e-05 -9.53991e-13 -2.59575e-13)
(1.98977e-05 -6.08977e-13 7.90642e-12)
(1.98976e-05 2.10256e-13 3.21533e-11)
(1.98976e-05 6.98403e-13 -1.50137e-11)
(1.98976e-05 3.14229e-12 9.0051e-11)
(1.98974e-05 2.34296e-12 1.6686e-10)
(1.99307e-05 -3.02957e-09 1.11851e-07)
(1.98603e-05 -8.67556e-10 -3.4492e-08)
(1.99015e-05 -3.53529e-10 6.07195e-09)
(1.98837e-05 1.60415e-10 7.60509e-10)
(1.98913e-05 3.663e-10 -4.16861e-09)
(1.98964e-05 3.62845e-10 -1.26404e-10)
(1.98955e-05 3.11551e-10 1.39104e-10)
(1.98962e-05 2.23394e-10 -2.78991e-10)
(1.9897e-05 1.40945e-10 -6.77137e-11)
(1.98971e-05 8.22085e-11 8.11519e-11)
(1.98971e-05 4.55637e-11 7.14747e-11)
(1.98972e-05 2.10139e-11 4.8395e-11)
(1.98973e-05 6.1389e-12 4.40959e-11)
(1.98973e-05 -2.82988e-12 4.17146e-11)
(1.98973e-05 -7.3771e-12 3.44504e-11)
(1.98974e-05 -9.09842e-12 2.65815e-11)
(1.98974e-05 -9.32291e-12 2.01859e-11)
(1.98974e-05 -8.74726e-12 1.5163e-11)
(1.98974e-05 -7.8666e-12 1.09656e-11)
(1.98974e-05 -6.80944e-12 7.50477e-12)
(1.98975e-05 -5.75317e-12 4.72409e-12)
(1.98975e-05 -4.83913e-12 2.39087e-12)
(1.98975e-05 -4.13454e-12 1.05349e-14)
(1.98975e-05 -3.47606e-12 -1.6748e-12)
(1.98975e-05 -2.87008e-12 -2.73301e-12)
(1.98975e-05 -2.34552e-12 -3.46519e-12)
(1.98975e-05 -1.89996e-12 -3.87533e-12)
(1.98975e-05 -1.53038e-12 -4.02993e-12)
(1.98975e-05 -1.22697e-12 -4.02364e-12)
(1.98975e-05 -9.87694e-13 -3.90736e-12)
(1.98975e-05 -7.98142e-13 -3.71608e-12)
(1.98975e-05 -6.5253e-13 -3.46232e-12)
(1.98975e-05 -5.44092e-13 -3.15104e-12)
(1.98976e-05 -4.62691e-13 -2.81062e-12)
(1.98976e-05 -3.99893e-13 -2.47012e-12)
(1.98976e-05 -3.4754e-13 -2.15081e-12)
(1.98976e-05 -3.09303e-13 -1.8481e-12)
(1.98976e-05 -2.8564e-13 -1.55063e-12)
(1.98976e-05 -2.78858e-13 -1.25926e-12)
(1.98976e-05 -2.67313e-13 -9.92903e-13)
(1.98976e-05 -2.58054e-13 -7.5572e-13)
(1.98976e-05 -2.50553e-13 -5.4448e-13)
(1.98976e-05 -2.4211e-13 -3.57825e-13)
(1.98976e-05 -2.31049e-13 -1.94847e-13)
(1.98976e-05 -2.21094e-13 -5.39054e-14)
(1.98976e-05 -2.11846e-13 6.91367e-14)
(1.98976e-05 -2.06084e-13 1.73764e-13)
(1.98977e-05 -2.02381e-13 2.61966e-13)
(1.98977e-05 -2.00322e-13 3.35864e-13)
(1.98977e-05 -1.98363e-13 3.98476e-13)
(1.98977e-05 -1.96165e-13 4.5305e-13)
(1.98977e-05 -1.95694e-13 4.91157e-13)
(1.98977e-05 -1.94074e-13 5.25023e-13)
(1.98977e-05 -1.91569e-13 5.5308e-13)
(1.98977e-05 -1.89402e-13 5.73924e-13)
(1.98977e-05 -1.86799e-13 5.89364e-13)
(1.98977e-05 -1.83634e-13 5.99453e-13)
(1.98977e-05 -1.7927e-13 6.05823e-13)
(1.98977e-05 -1.74169e-13 6.08955e-13)
(1.98977e-05 -1.6861e-13 6.09336e-13)
(1.98977e-05 -1.62716e-13 6.06523e-13)
(1.98977e-05 -1.56194e-13 6.01442e-13)
(1.98977e-05 -1.49316e-13 5.94542e-13)
(1.98977e-05 -1.42357e-13 5.86078e-13)
(1.98977e-05 -1.36399e-13 5.75781e-13)
(1.98977e-05 -1.32688e-13 5.6433e-13)
(1.98977e-05 -1.29767e-13 5.48658e-13)
(1.98977e-05 -1.2702e-13 5.33479e-13)
(1.98977e-05 -1.25175e-13 5.19811e-13)
(1.98977e-05 -1.23618e-13 5.07669e-13)
(1.98977e-05 -1.22936e-13 4.96098e-13)
(1.98977e-05 -1.2315e-13 4.83656e-13)
(1.98977e-05 -1.2364e-13 4.69916e-13)
(1.98977e-05 -1.22641e-13 4.56931e-13)
(1.98977e-05 -1.18974e-13 4.44264e-13)
(1.98977e-05 -1.10658e-13 4.31743e-13)
(1.98978e-05 -9.47433e-14 4.19676e-13)
(1.98978e-05 -6.51188e-14 4.10073e-13)
(1.98978e-05 -1.60769e-14 3.9151e-13)
(1.98978e-05 5.62413e-14 3.6542e-13)
(1.98978e-05 1.55794e-13 3.35679e-13)
(1.98978e-05 2.90134e-13 3.02626e-13)
(1.98978e-05 4.62718e-13 2.86445e-13)
(1.98978e-05 6.7651e-13 2.78077e-13)
(1.98978e-05 9.25632e-13 2.72527e-13)
(1.98978e-05 1.19491e-12 2.6599e-13)
(1.98978e-05 1.45964e-12 2.48541e-13)
(1.98978e-05 1.67863e-12 1.97807e-13)
(1.98978e-05 1.76841e-12 1.48593e-13)
(1.98978e-05 1.62214e-12 4.90149e-14)
(1.98978e-05 1.14547e-12 -1.46719e-13)
(1.98978e-05 1.70392e-13 -2.46669e-13)
(1.98978e-05 -1.45938e-12 7.9156e-13)
(1.98978e-05 -3.86858e-12 1.98527e-12)
(1.98978e-05 -7.2258e-12 -3.29619e-13)
(1.98978e-05 -1.17926e-11 7.83012e-12)
(1.98977e-05 -1.70736e-11 3.19722e-11)
(1.98977e-05 -2.11488e-11 -1.49723e-11)
(1.98977e-05 -2.68132e-11 8.93043e-11)
(1.98975e-05 -2.53881e-11 1.66835e-10)
(1.92279e-05 -1.06874e-08 1.10763e-07)
(1.91581e-05 -2.97101e-09 -3.34196e-08)
(1.91977e-05 -9.13847e-10 6.45093e-09)
(1.91799e-05 6.55924e-10 8.20502e-10)
(1.91874e-05 1.07711e-09 -4.16781e-09)
(1.91925e-05 9.39094e-10 -1.3354e-10)
(1.91917e-05 7.74658e-10 1.51983e-10)
(1.91925e-05 5.38286e-10 -2.76157e-10)
(1.91933e-05 3.12265e-10 -8.03556e-11)
(1.91935e-05 1.61423e-10 7.16991e-11)
(1.91936e-05 7.37408e-11 6.62951e-11)
(1.91937e-05 1.99127e-11 4.70641e-11)
(1.91937e-05 -1.00001e-11 4.38078e-11)
(1.91938e-05 -2.33413e-11 3.77363e-11)
(1.91938e-05 -2.77371e-11 3.16133e-11)
(1.91938e-05 -2.74471e-11 2.51899e-11)
(1.91939e-05 -2.47921e-11 1.95113e-11)
(1.91939e-05 -2.1219e-11 1.483e-11)
(1.91939e-05 -1.77181e-11 1.08613e-11)
(1.91939e-05 -1.45315e-11 7.53668e-12)
(1.91939e-05 -1.18636e-11 4.83016e-12)
(1.91939e-05 -9.73666e-12 2.58289e-12)
(1.91939e-05 -7.97696e-12 1.41311e-13)
(1.9194e-05 -6.68365e-12 -1.75218e-12)
(1.9194e-05 -5.70752e-12 -2.8901e-12)
(1.9194e-05 -4.96641e-12 -3.69594e-12)
(1.9194e-05 -4.38861e-12 -4.18676e-12)
(1.9194e-05 -3.94784e-12 -4.39558e-12)
(1.9194e-05 -3.61684e-12 -4.38233e-12)
(1.9194e-05 -3.38018e-12 -4.19733e-12)
(1.9194e-05 -3.22531e-12 -3.921e-12)
(1.9194e-05 -3.14611e-12 -3.62447e-12)
(1.9194e-05 -3.12789e-12 -3.30856e-12)
(1.9194e-05 -3.14242e-12 -2.96656e-12)
(1.9194e-05 -3.17035e-12 -2.62298e-12)
(1.9194e-05 -3.19808e-12 -2.28958e-12)
(1.9194e-05 -3.22227e-12 -1.97174e-12)
(1.9194e-05 -3.24135e-12 -1.67481e-12)
(1.9194e-05 -3.24697e-12 -1.39154e-12)
(1.91941e-05 -3.24184e-12 -1.13357e-12)
(1.91941e-05 -3.22462e-12 -9.01991e-13)
(1.91941e-05 -3.1942e-12 -6.9502e-13)
(1.91941e-05 -3.14702e-12 -5.10501e-13)
(1.91941e-05 -3.08608e-12 -3.47908e-13)
(1.91941e-05 -3.01705e-12 -2.05673e-13)
(1.91941e-05 -2.94393e-12 -8.01764e-14)
(1.91941e-05 -2.86814e-12 3.23894e-14)
(1.91941e-05 -2.78807e-12 1.28114e-13)
(1.91941e-05 -2.70381e-12 2.0872e-13)
(1.91941e-05 -2.61569e-12 2.77503e-13)
(1.91941e-05 -2.52468e-12 3.3805e-13)
(1.91941e-05 -2.43064e-12 3.87021e-13)
(1.91941e-05 -2.33402e-12 4.40764e-13)
(1.91941e-05 -2.23598e-12 4.89569e-13)
(1.91941e-05 -2.13688e-12 5.30716e-13)
(1.91942e-05 -2.0376e-12 5.63701e-13)
(1.91942e-05 -1.93836e-12 5.90566e-13)
(1.91942e-05 -1.83979e-12 6.1166e-13)
(1.91942e-05 -1.74285e-12 6.27536e-13)
(1.91942e-05 -1.64833e-12 6.37491e-13)
(1.91942e-05 -1.55556e-12 6.45512e-13)