/*--------------------------------*- C++ -*----------------------------------*\
| =========                 |                                                 |
| \\      /  F ield         | OpenFOAM: The Open Source CFD Toolbox           |
|  \\    /   O peration     | Version:  2412                                  |
|   \\  /    A nd           | Website:  www.openfoam.com                      |
|    \\/     M anipulation  |                                                 |
\*---------------------------------------------------------------------------*/
FoamFile
{
    version     2.0;
    format      ascii;
    arch        "LSB;label=32;scalar=64";
    class       volScalarField;
    location    "150";
    object      p;
}
// * * * * * * * * * * * * * * * * * * * * * * * * * * * * * * * * * * * * * //

dimensions      [0 2 -2 0 0 0 0];

internalField   nonuniform List<scalar> 
283461
(
0.000942556
0.000942555
0.000942579
0.000942614
0.000942653
0.000942689
0.000107548
0.000134121
0.00014101
0.000141221
0.000138739
0.000134866
0.000130239
0.000125223
0.000119972
0.000114533
0.000108994
0.000103411
9.78253e-05
9.22802e-05
8.6716e-05
8.10628e-05
7.53924e-05
6.98599e-05
6.46118e-05
5.96604e-05
5.50145e-05
5.07192e-05
4.6754e-05
4.3095e-05
3.97088e-05
3.65681e-05
3.36549e-05
3.09517e-05
2.84481e-05
2.61408e-05
2.4018e-05
2.20661e-05
2.02726e-05
1.86278e-05
1.71236e-05
1.57539e-05
1.45133e-05
1.33974e-05
1.24023e-05
1.15244e-05
1.07605e-05
1.01075e-05
9.56019e-06
9.10789e-06
8.71778e-06
8.32351e-06
7.73698e-06
6.63693e-06
4.14105e-08
0.000942537
0.000942544
0.000942552
0.000942575
0.000942615
0.000942666
0.000942733
0.000942841
0.000942902
0.000942947
0.000942972
0.000942947
0.000942952
0.000943129
0.000943382
0.000943966
0.000249402
0.000242371
0.000225961
0.000164171
0.000156694
0.000151507
0.000146535
0.000141577
0.000136469
0.000131213
0.000125853
0.000120413
0.000114857
0.000109257
0.000103612
9.79275e-05
9.22208e-05
8.65198e-05
8.08538e-05
7.52652e-05
6.98095e-05
6.45651e-05
5.95992e-05
5.49359e-05
5.06299e-05
4.66611e-05
4.30019e-05
3.96157e-05
3.64743e-05
3.35589e-05
3.08513e-05
2.83425e-05
2.6033e-05
2.39103e-05
2.19591e-05
2.01661e-05
1.85209e-05
1.70154e-05
1.56432e-05
1.43984e-05
1.32762e-05
1.22714e-05
1.13787e-05
1.0592e-05
9.90306e-06
9.29787e-06
8.75021e-06
8.20253e-06
7.54544e-06
6.56636e-06
4.85512e-06
-1.14371e-08
0.000942535
0.000942535
0.000942541
0.000942562
0.000942599
0.000942647
0.000942706
0.000942782
0.00094284
0.000942878
0.000942902
0.000942892
0.000942914
0.000943052
0.000943273
0.000943728
0.000942872
0.000942081
0.000942639
0.000944294
0.000935376
0.000936735
0.000937309
0.000939881
0.000284172
0.000257936
0.000237763
0.000217184
0.000182209
0.000169377
0.000159691
0.000151818
0.000144936
0.000138555
0.000132607
0.000126796
0.000120948
0.00011516
0.000109439
0.000103709
9.79662e-05
9.22266e-05
8.65075e-05
8.08312e-05
7.52245e-05
6.97504e-05
6.44901e-05
5.94929e-05
5.47912e-05
5.0465e-05
4.64877e-05
4.28268e-05
3.94401e-05
3.62973e-05
3.33788e-05
3.06626e-05
2.81432e-05
2.58303e-05
2.37087e-05
2.17596e-05
1.99681e-05
1.83228e-05
1.68154e-05
1.54395e-05
1.41886e-05
1.3057e-05
1.20383e-05
1.11253e-05
1.03083e-05
9.57422e-06
8.90097e-06
8.25198e-06
7.55845e-06
6.7088e-06
5.5244e-06
3.71364e-06
8.58303e-08
0.000942531
0.000942524
0.000942522
0.000942536
0.000942569
0.000942612
0.000942661
0.000942717
0.000942762
0.000942792
0.000942809
0.000942803
0.00094281
0.000942867
0.000942911
0.000942996
0.000942448
0.000941919
0.000941927
0.000942342
0.000940352
0.00093786
0.000937449
0.000937043
0.000937809
0.000935432
0.000932484
0.000930272
0.000926863
0.000923758
0.000922862
0.000919723
0.000923657
0.000842197
0.00085666
0.00034678
0.000319821
0.000288339
0.000249092
0.000224589
0.000197366
0.000180817
0.000167935
0.000157562
0.000148826
0.000141155
0.000134228
0.000127724
0.000121492
0.00011553
0.000109695
0.000103867
9.80272e-05
9.22066e-05
8.6444e-05
8.07654e-05
7.51609e-05
6.96786e-05
6.44071e-05
5.93549e-05
5.45849e-05
5.02222e-05
4.62274e-05
4.25604e-05
3.9171e-05
3.60266e-05
3.3106e-05
3.03766e-05
2.78401e-05
2.55234e-05
2.34047e-05
2.14593e-05
1.96704e-05
1.80252e-05
1.65153e-05
1.5135e-05
1.38763e-05
1.27333e-05
1.16983e-05
1.07628e-05
9.9143e-06
9.13683e-06
8.40433e-06
7.67902e-06
6.894e-06
5.95815e-06
4.74307e-06
3.06459e-06
3.94486e-07
0.000942506
0.000942486
0.000942492
0.000942526
0.000942567
0.000942612
0.000942657
0.000942694
0.000942718
0.000942728
0.000942719
0.000942704
0.000942695
0.000942655
0.000942592
0.000942207
0.000941785
0.000941559
0.00094138
0.000940036
0.000938398
0.000937552
0.000936738
0.000936392
0.000934529
0.000931921
0.000929429
0.000926029
0.000922147
0.000918764
0.000913307
0.000909544
0.000893793
0.000875259
0.000854961
0.000851715
0.000842815
0.000867258
0.000418528
0.000390712
0.000359578
0.000322095
0.000273388
0.00024282
0.000214338
0.000193003
0.000176568
0.000163563
0.000152909
0.00014383
0.000135799
0.000128602
0.000121985
0.000115782
0.000109864
0.000103961
9.80273e-05
9.21253e-05
8.63286e-05
8.0674e-05
7.50947e-05
6.96258e-05
6.43554e-05
5.92166e-05
5.43437e-05
4.99164e-05
4.58846e-05
4.21996e-05
3.88017e-05
3.56562e-05
3.27391e-05
2.99932e-05
2.74338e-05
2.51151e-05
2.30027e-05
2.10626e-05
1.92772e-05
1.76328e-05
1.61203e-05
1.47356e-05
1.3469e-05
1.23146e-05
1.12647e-05
1.03101e-05
9.43567e-06
8.62581e-06
7.85233e-06
7.08152e-06
6.25718e-06
5.30377e-06
4.14114e-06
2.67931e-06
7.1724e-07
0.000942412
0.00094241
0.000942462
0.000942513
0.000942562
0.000942607
0.000942641
0.000942662
0.000942666
0.000942648
0.00094261
0.000942555
0.000942458
0.000942309
0.000941988
0.000941596
0.000941209
0.000940735
0.000939757
0.00093857
0.000937562
0.000936485
0.000935441
0.000933695
0.000931396
0.000928825
0.000925484
0.000921477
0.000917226
0.000911036
0.000904249
0.000891101
0.000873886
0.000854738
0.000838735
0.000814365
0.00079259
0.000709751
0.000568752
0.000483856
0.000417212
0.000359333
0.000301881
0.000264899
0.000232227
0.000205711
0.000185364
0.00016964
0.000157026
0.000146445
0.000137209
0.000129232
0.000122187
0.000115754
0.000109867
0.000103948
9.79247e-05
9.19348e-05
8.61192e-05
8.05369e-05
7.50178e-05
6.95678e-05
6.42828e-05
5.90493e-05
5.40688e-05
4.95343e-05
4.54413e-05
4.1724e-05
3.8311e-05
3.51678e-05
3.22715e-05
2.95107e-05
2.69258e-05
2.46093e-05
2.25071e-05
2.05725e-05
1.87911e-05
1.71483e-05
1.56333e-05
1.42451e-05
1.29713e-05
1.18074e-05
1.07465e-05
9.78079e-06
8.89009e-06
8.06338e-06
7.27924e-06
6.49357e-06
5.67267e-06
4.75567e-06
3.69346e-06
2.46271e-06
9.96342e-07
0.000942251
0.000942358
0.000942444
0.000942511
0.000942566
0.000942606
0.000942628
0.00094263
0.000942604
0.00094255
0.000942465
0.000942332
0.000942137
0.000941829
0.000941437
0.000940981
0.000940408
0.00093956
0.000938536
0.000937471
0.000936277
0.000934948
0.000933169
0.000930919
0.000928242
0.000924864
0.000920693
0.000915769
0.000909217
0.000901135
0.000889226
0.000874098
0.000855176
0.000834068
0.000806796
0.00077232
0.000704265
0.000605063
0.00052352
0.000452812
0.000389209
0.000328783
0.000286035
0.000249071
0.000218301
0.000193948
0.000175691
0.000161234
0.000149021
0.000138274
0.000129353
0.000121837
0.000115125
0.000109497
0.000103707
9.76283e-05
9.15528e-05
8.57809e-05
8.03855e-05
7.50281e-05
6.96004e-05
6.41955e-05
5.88636e-05
5.3828e-05
4.9127e-05
4.49304e-05
4.11471e-05
3.7691e-05
3.45366e-05
3.16778e-05
2.89122e-05
2.63125e-05
2.40085e-05
2.19222e-05
1.99918e-05
1.82143e-05
1.6574e-05
1.50563e-05
1.36663e-05
1.23868e-05
1.12154e-05
1.01491e-05
9.18288e-06
8.29746e-06
7.47748e-06
6.69892e-06
5.93189e-06
5.1477e-06
4.30493e-06
3.36645e-06
2.35885e-06
1.27071e-06
0.000942108
0.000942213
0.000942352
0.000942454
0.000942532
0.000942588
0.00094262
0.000942625
0.000942597
0.000942533
0.000942428
0.000942271
0.000942049
0.000941737
0.000941337
0.000940849
0.00094024
0.000939441
0.000938481
0.000937399
0.000936151
0.0009347
0.000932888
0.00093064
0.000927915
0.000924528
0.000920323
0.000915176
0.000908545
0.000900131
0.00088873
0.000874089
0.00085499
0.000831642
0.000801893
0.0007635
0.000707037
0.000629424
0.000555601
0.000485264
0.000420753
0.000360393
0.00031222
0.000268838
0.000232041
0.000202522
0.000181992
0.000165737
0.000151664
0.000138834
0.000128724
0.000120847
0.000113854
0.000108808
0.000103278
9.71442e-05
9.09454e-05
8.52521e-05
8.01761e-05
7.50921e-05
6.96796e-05
6.4116e-05
5.86595e-05
5.35238e-05
4.86168e-05
4.42829e-05
4.04149e-05
3.68876e-05
3.37049e-05
3.09098e-05
2.81705e-05
2.55967e-05
2.33239e-05
2.12554e-05
1.93209e-05
1.75432e-05
1.59055e-05
1.43864e-05
1.29984e-05
1.17143e-05
1.05302e-05
9.47629e-06
8.53976e-06
7.66167e-06
6.8601e-06
6.11498e-06
5.39896e-06
4.67925e-06
3.92741e-06
3.11905e-06
2.2816e-06
1.53986e-06
0.00094193
0.000942203
0.000942373
0.000942494
0.000942581
0.000942634
0.00094265
0.000942625
0.000942557
0.000942442
0.00094227
0.000942033
0.000941713
0.000941306
0.000940803
0.000940182
0.000939407
0.000938478
0.000937397
0.00093613
0.000934634
0.000932812
0.000930583
0.000927871
0.000924531
0.000920396
0.00091528
0.000908782
0.000900488
0.000889561
0.000875347
0.000856187
0.000832056
0.000801436
0.000763691
0.00071367
0.000648505
0.000581393
0.000511001
0.000445912
0.000383224
0.000332172
0.000284022
0.000243526
0.000212311
0.000189103
0.00017095
0.000154496
0.000138436
0.000126767
0.00011903
0.000111989
0.000107786
0.00010245
9.61793e-05
8.98211e-05
8.44189e-05
7.99156e-05
7.53224e-05
6.99653e-05
6.43191e-05
5.88246e-05
5.33015e-05
4.79056e-05
4.34064e-05
3.94938e-05
3.58834e-05
3.26629e-05
2.99325e-05
2.72734e-05
2.48104e-05
2.25863e-05
2.05206e-05
1.85603e-05
1.67746e-05
1.5141e-05
1.36233e-05
1.22421e-05
1.09559e-05
9.79951e-06
8.76466e-06
7.83064e-06
6.99012e-06
6.23773e-06
5.54523e-06
4.89263e-06
4.25481e-06
3.60606e-06
2.9247e-06
2.26048e-06
1.76077e-06
0.000941712
0.000941983
0.000942238
0.000942432
0.000942569
0.000942659
0.000942698
0.000942685
0.000942621
0.000942502
0.000942324
0.000942078
0.000941754
0.000941344
0.000940836
0.000940215
0.000939458
0.000938552
0.000937485
0.000936225
0.00093473
0.000932929
0.000930747
0.000928099
0.000924862
0.000920874
0.000915938
0.000909721
0.000901789
0.000891456
0.000877869
0.000859004
0.000836024
0.000805691
0.000768995
0.000722241
0.000666405
0.000606297
0.000532338
0.000465548
0.000400307
0.000349229
0.000299108
0.000254171
0.000221505
0.000197147
0.000178646
0.00015846
0.000137505
0.00012417
0.000115909
0.00010812
0.000105049
0.000101028
9.5274e-05
8.92551e-05
8.47222e-05
8.04469e-05
7.62158e-05
7.05967e-05
6.45353e-05
5.88961e-05
5.2759e-05
4.67325e-05
4.23938e-05
3.86045e-05
3.47599e-05
3.14422e-05
2.88005e-05
2.62247e-05
2.39092e-05
2.17735e-05
1.96963e-05
1.76927e-05
1.58947e-05
1.42704e-05
1.27624e-05
1.14034e-05
1.01171e-05
8.98227e-06
7.98715e-06
7.09688e-06
6.31155e-06
5.61712e-06
4.99459e-06
4.42089e-06
3.8747e-06
3.33168e-06
2.77076e-06
2.28982e-06
1.91959e-06
0.000941494
0.000941965
0.000942312
0.000942535
0.000942684
0.00094276
0.00094277
0.000942717
0.000942602
0.000942424
0.000942176
0.000941852
0.000941444
0.00094094
0.000940328
0.000939589
0.000938709
0.000937667
0.000936435
0.000934972
0.000933221
0.000931114
0.00092857
0.000925479
0.00092169
0.000917017
0.00091117
0.000903746
0.000894172
0.000881626
0.000864495
0.000843913
0.00081354
0.000775742
0.000733228
0.000687524
0.000636297
0.000553715
0.00048223
0.000405432
0.00034374
0.000295607
0.00025504
0.000223876
0.000201275
0.000186846
0.000165569
0.000138611
0.000114861
0.000109741
0.000105538
0.000103777
0.000100789
9.44038e-05
8.79317e-05
8.44421e-05
8.08492e-05
7.75762e-05
7.14795e-05
6.45382e-05
5.88641e-05
5.18027e-05
4.52971e-05
4.1859e-05
3.78345e-05
3.34616e-05
3.00551e-05
2.7477e-05
2.49555e-05
2.28336e-05
2.0812e-05
1.87359e-05
1.66785e-05
1.48518e-05
1.3254e-05
1.17769e-05
1.04509e-05
9.1962e-06
8.11639e-06
7.15864e-06
6.32951e-06
5.62322e-06
5.00925e-06
4.4723e-06
3.98911e-06
3.53971e-06
3.10049e-06
2.64944e-06
2.30624e-06
2.06793e-06
0.000941175
0.000941514
0.000942097
0.00094246
0.000942697
0.000942827
0.000942871
0.000942838
0.000942735
0.000942562
0.000942319
0.000942
0.000941599
0.000941106
0.00094051
0.000939795
0.000938946
0.000937941
0.000936752
0.000935344
0.000933667
0.00093166
0.000929249
0.000926335
0.000922778
0.000918403
0.00091295
0.000906052
0.000897224
0.000885563
0.000870342
0.000852373
0.00082589
0.000789557
0.000753707
0.000724838
0.000698148
0.000616933
0.000526687
0.000410448
0.000342196
0.000293097
0.000253324
0.000223996
0.000205413
0.000201066
0.000102716
0.000103478
0.000103241
0.000102405
9.92693e-05
9.35855e-05
8.79996e-05
8.44388e-05
8.05586e-05
7.68692e-05
7.05711e-05
6.39151e-05
5.93431e-05
5.25038e-05
4.56657e-05
4.16795e-05
3.68077e-05
3.19678e-05
2.85761e-05
2.59212e-05
2.35318e-05
2.16918e-05
1.9732e-05
1.7552e-05
1.53789e-05
1.35668e-05
1.20745e-05
1.0681e-05
9.41079e-06
8.19004e-06
7.17654e-06
6.30357e-06
5.56651e-06
4.9544e-06
4.43368e-06
3.99195e-06
3.60512e-06
3.25356e-06
2.91491e-06
2.56874e-06
2.33936e-06
2.26117e-06
0.000940351
0.000941471
0.000942244
0.000942671
0.000942888
0.000942981
0.000942977
0.000942892
0.000942731
0.000942497
0.000942189
0.0009418
0.000941324
0.00094075
0.000940066
0.000939255
0.000938297
0.000937166
0.000935829
0.000934245
0.000932359
0.000930106
0.000927397
0.0009241
0.000920054
0.000915021
0.000908663
0.000900617
0.000889874
0.00087699
0.000862277
0.000841778
0.00080538
0.000767234
0.000740849
0.000722056
0.000678182
0.000622247
0.000101193
0.000101835
0.000102449
9.85496e-05
9.21109e-05
8.63472e-05
8.39724e-05
8.09324e-05
7.8237e-05
7.03377e-05
6.28379e-05
6.03044e-05
5.19765e-05
4.33948e-05
4.06448e-05
3.66563e-05
3.18449e-05
2.72585e-05
2.43909e-05
2.2075e-05
2.02469e-05
1.82073e-05
1.58558e-05
1.37284e-05
1.20359e-05
1.07035e-05
9.46324e-06
8.31273e-06
7.17353e-06
6.25128e-06
5.47186e-06
4.83611e-06
4.32867e-06
3.9104e-06
3.56868e-06
3.27827e-06
3.02057e-06
2.77552e-06
2.52704e-06
2.39064e-06
2.47405e-06
0.00094076
0.000941995
0.000942657
0.000942958
0.000943101
0.00094313
0.000943067
0.000942922
0.000942703
0.000942409
0.000942038
0.000941584
0.000941039
0.000940391
0.000939625
0.000938723
0.000937662
0.00093641
0.000934933
0.000933184
0.000931104
0.000928619
0.000925597
0.000921882
0.000917249
0.000911353
0.00090404
0.000894188
0.000882669
0.000869301
0.000850707
0.000816794
0.000778741
0.000756961
0.000736457
0.000713976
0.000100736
0.000100631
9.75444e-05
9.27184e-05
8.81418e-05
8.44234e-05
8.03624e-05
7.61706e-05
7.01056e-05
6.3836e-05
5.88762e-05
5.16862e-05
4.40697e-05
4.06218e-05
3.63457e-05
3.08173e-05
2.55177e-05
2.16357e-05
1.98386e-05
1.85045e-05
1.65954e-05
1.41971e-05
1.21121e-05
1.04088e-05
9.28478e-06
8.23709e-06
7.19238e-06
6.14602e-06
5.32636e-06
4.66218e-06
4.15464e-06
3.76757e-06
3.46013e-06
3.21827e-06
3.01828e-06
2.84423e-06
2.67991e-06
2.51758e-06
2.46157e-06
2.68924e-06
0.000940961
0.000942052
0.000942715
0.000943051
0.000943232
0.000943292
0.000943253
0.000943128
0.000942926
0.000942651
0.000942302
0.000941875
0.000941364
0.000940759
0.000940046
0.000939209
0.000938225
0.00093707
0.000935711
0.000934112
0.000932223
0.000929986
0.000927266
0.000923908
0.000919692
0.00091418
0.000907639
0.000898702
0.000888107
0.000877696
0.000858171
0.000820374
0.000780168
0.000754738
0.000748939
3.97234e-05
3.87013e-05
3.55347e-05
3.12003e-05
2.64234e-05
1.85212e-05
1.73987e-05
1.60794e-05
1.41438e-05
1.21061e-05
1.02164e-05
8.82594e-06
7.90392e-06
7.02609e-06
6.1275e-06
5.2342e-06
4.50334e-06
3.95129e-06
3.57168e-06
3.30423e-06
3.10404e-06
2.95255e-06
2.82851e-06
2.7221e-06
2.62097e-06
2.52577e-06
2.53021e-06
2.86437e-06
0.000940855
0.000941905
0.000942692
0.000943108
0.000943348
0.000943449
0.000943439
0.000943338
0.000943157
0.000942904
0.000942581
0.000942185
0.000941713
0.000941156
0.000940503
0.000939738
0.000938842
0.000937791
0.00093656
0.000935119
0.000933431
0.000931463
0.000929064
0.00092608
0.000922275
0.000916972
0.000911634
0.000905076
0.000897989
0.000892793
0.000886224
1.27397e-05
1.37912e-05
1.33225e-05
1.20744e-05
1.03934e-05
8.40672e-06
7.39777e-06
6.64609e-06
5.92852e-06
5.18787e-06
4.43464e-06
3.77484e-06
3.35623e-06
3.10874e-06
2.95508e-06
2.84933e-06
2.77031e-06
2.70418e-06
2.64755e-06
2.5913e-06
2.54014e-06
2.59408e-06
2.99367e-06
0.000940827
0.000941822
0.000942659
0.000943145
0.000943446
0.000943593
0.000943617
0.000943543
0.000943386
0.000943158
0.000942863
0.000942502
0.000942073
0.00094157
0.000940982
0.000940297
0.000939495
0.000938557
0.000937459
0.000936182
0.000934699
0.000933012
0.000930936
0.000928268
0.000924669
0.000918712
0.000914503
0.000908222
0.000905028
0.000901965
1.14561e-05
1.19005e-05
1.15365e-05
1.04566e-05
8.76564e-06
7.1312e-06
6.32422e-06
5.59477e-06
4.96182e-06
4.33278e-06
3.70316e-06
3.19692e-06
2.9244e-06
2.79354e-06
2.73037e-06
2.69555e-06
2.6681e-06
2.64265e-06
2.61507e-06
2.5797e-06
2.54482e-06
2.64481e-06
3.05921e-06
0.000940379
0.000941295
0.000942444
0.000943098
0.000943497
0.000943709
0.000943777
0.000943733
0.000943603
0.0009434
0.000943135
0.000942811
0.000942428
0.000941983
0.000941467
0.000940868
0.000940171
0.000939356
0.000938401
0.000937296
0.000936033
0.000934673
0.000932996
0.000930758
0.000927409
0.000920041
0.000916385
0.000912381
0.000908519
1.06923e-05
1.08023e-05
1.03641e-05
9.3492e-06
7.69106e-06
6.38458e-06
5.44287e-06
4.6593e-06
4.09062e-06
3.56912e-06
3.079e-06
2.78237e-06
2.65566e-06
2.61928e-06
2.62032e-06
2.63324e-06
2.63986e-06
2.63298e-06
2.61316e-06
2.57741e-06
2.53222e-06
2.66182e-06
3.01983e-06
0.000939769
0.000941586
0.000942842
0.000943471
0.000943782
0.000943907
0.000943899
0.000943795
0.000943619
0.000943384
0.000943097
0.000942762
0.000942377
0.000941938
0.000941433
0.00094085
0.000940169
0.00093937
0.00093844
0.000937404
0.000936392
0.000935153
0.000933367
0.000930173
0.000920216
0.000915152
0.00091494
1.02824e-05
1.03094e-05
9.71027e-06
8.69876e-06
6.88407e-06
5.70096e-06
4.52856e-06
3.81024e-06
3.32939e-06
2.95567e-06
2.64964e-06
2.52471e-06
2.51038e-06
2.54836e-06
2.60253e-06
2.64425e-06
2.66249e-06
2.65598e-06
2.62912e-06
2.57773e-06
2.50005e-06
2.61045e-06
2.86826e-06
0.000939816
0.000942256
0.000943364
0.000943816
0.000944005
0.000944033
0.000943954
0.000943802
0.000943595
0.000943344
0.000943056
0.000942731
0.000942369
0.000941962
0.000941499
0.000940961
0.000940326
0.000939571
0.000938785
0.000938181
0.000937562
0.000936668
0.000934394
1.01876e-05
1.04237e-05
9.23762e-06
7.40522e-06
5.47127e-06
4.69919e-06
3.83526e-06
3.16414e-06
2.71886e-06
2.50272e-06
2.39083e-06
2.40146e-06
2.47364e-06
2.57004e-06
2.65511e-06
2.70369e-06
2.71471e-06
2.69526e-06
2.65257e-06
2.58018e-06
2.47171e-06
2.53213e-06
2.73568e-06
0.000940039
0.000942355
0.000943435
0.000943893
0.000944095
0.000944137
0.000944072
0.000943938
0.000943754
0.000943535
0.00094329
0.000943025
0.000942741
0.000942437
0.00094211
0.00094175
0.000941341
0.000940847
0.000940473
0.000940488
0.000940865
0.000941467
6.64182e-06
5.65469e-06
4.58823e-06
4.15159e-06
3.44695e-06
2.70664e-06
2.2347e-06
2.16772e-06
2.21137e-06
2.33411e-06
2.48936e-06
2.63363e-06
2.73651e-06
2.7783e-06
2.76902e-06
2.72834e-06
2.66831e-06
2.57602e-06
2.44279e-06
2.4476e-06
2.59119e-06
0.000940018
0.000942373
0.000943468
0.000943937
0.000944146
0.000944191
0.000944134
0.00094401
0.000943844
0.000943651
0.000943443
0.000943227
0.00094301
0.000942795
0.000942584
0.000942372
0.000942128
0.000941792
0.00094164
0.000941898
0.000942555
0.000943202
5.95112e-06
4.93363e-06
4.24217e-06
3.8241e-06
3.10677e-06
2.44811e-06
1.81685e-06
1.88362e-06
2.05952e-06
2.29358e-06
2.52414e-06
2.7066e-06
2.82333e-06
2.84293e-06
2.79679e-06
2.72871e-06
2.65911e-06
2.55669e-06
2.40967e-06
2.32994e-06
2.36512e-06
0.000939614
0.000942271
0.000943458
0.000943939
0.000944145
0.000944185
0.000944125
0.000944007
0.000943849
0.000943675
0.000943494
0.000943317
0.000943149
0.000942997
0.000942867
0.000942749
0.000942607
0.000942519
0.000942434
0.000942654
0.000943188
0.000943744
0.000944116
4.39413e-06
3.92099e-06
3.31802e-06
2.63355e-06
2.07174e-06
1.45258e-06
1.65861e-06
1.94582e-06
2.26645e-06
2.55577e-06
2.77102e-06
2.90362e-06
2.87437e-06
2.76102e-06
2.65814e-06
2.60515e-06
2.52031e-06
2.39568e-06
2.18653e-06
2.05435e-06
0.000938799
0.00094206
0.000943403
0.000943896
0.000944084
0.000944105
0.000944032
0.000943905
0.000943754
0.000943591
0.000943431
0.000943283
0.000943153
0.000943047
0.000942973
0.000942916
0.00094283
0.000942825
0.000942817
0.000942987
0.000943336
0.000943573
0.000943737
0.000943701
3.3786e-06
2.9192e-06
2.50306e-06
1.77165e-06
1.08761e-06
1.45002e-06
1.83657e-06
2.22346e-06
2.56276e-06
2.81248e-06
2.98809e-06
2.85043e-06
2.59248e-06
2.44418e-06
2.47832e-06
2.47571e-06
2.47723e-06
2.04068e-06
1.63911e-06
0.000941172
0.000940813
0.000941835
0.0009431
0.000943676
0.000943921
0.000943991
0.000943949
0.000943843
0.000943695
0.000943544
0.000943388
0.000943244
0.00094312
0.000943024
0.000942961
0.000942938
0.000942937
0.000942924
0.000942962
0.00094302
0.00094315
0.000943362
0.000943517
0.000943611
0.000943642
2.49889e-06
2.21108e-06
1.42456e-06
9.98824e-07
1.39463e-06
1.77502e-06
2.15898e-06
2.52628e-06
2.82849e-06
3.1497e-06
2.67887e-06
2.02713e-06
1.87029e-06
2.21551e-06
2.46177e-06
2.8988e-06
1.9666e-06
1.07583e-06
0.000941087
0.000942106
0.000942931
0.000943458
0.000943714
0.000943803
0.000943778
0.000943678
0.000943535
0.000943372
0.000943207
0.000943053
0.000942921
0.000942822
0.000942762
0.000942747
0.000942779
0.000942837
0.000942897
0.000942984
0.000943088
0.00094323
0.000943385
0.0009435
0.000943561
0.000943605
9.6806e-07
8.73884e-07
1.26132e-06
1.58545e-06
1.91559e-06
2.29227e-06
2.67976e-06
3.28629e-06
1.93799e-06
9.68885e-07
7.8929e-07
1.66689e-06
2.32482e-06
3.59709e-06
1.65813e-06
4.16935e-07
0.000941723
0.000942693
0.000943233
0.000943461
0.000943547
0.000943524
0.00094342
0.000943265
0.000943084
0.000942898
0.000942718
0.000942562
0.000942442
0.000942369
0.000942351
0.000942395
0.000942495
0.000942625
0.000942772
0.000942936
0.000943084
0.000943245
0.000943347
0.000943437
0.000943534
8.08603e-07
1.14883e-06
1.42156e-06
1.68584e-06
2.07892e-06
2.66212e-06
4.2179e-06
-1.1932e-06
9.64533e-07
2.49123e-06
5.18774e-06
0.000943472
0.000942786
0.000943158
0.000943199
0.000943164
0.000943061
0.000942894
0.000942689
0.000942467
0.00094225
0.000942052
0.000941891
0.00094178
0.000941733
0.000941762
0.000941873
0.000942057
0.000942278
0.000942543
0.000942829
0.000943031
0.000943239
0.000943333
0.000943376
0.00093939
0.000941682
0.000942398
0.000942478
0.000942378
0.000942179
0.000941931
0.000941667
0.000941414
0.00094119
0.000941015
0.000940907
0.000940883
0.00094096
0.000941151
0.000941442
0.000941781
0.000942191
0.000942635
0.000942848
0.000943147
0.000943437
0.000943452
0.000940029
0.00094115
0.000941744
0.00094171
0.000941545
0.000941291
0.000940989
0.000940673
0.000940372
0.000940109
0.000939907
0.000939787
0.000939775
0.000939898
0.000940179
0.000940596
0.000941073
0.000941659
0.00094235
0.000942663
0.000943149
0.000943614
0.00094401
0.0009412
0.000941172
0.000940828
0.000940543
0.000940221
0.000939855
0.000939476
0.000939115
0.000938799
0.000938554
0.000938407
0.000938384
0.000938523
0.000938847
0.000939343
0.00093988
0.000940518
0.000941173
0.000941591
0.000942168
0.000935346
0.000938419
0.000939184
0.000939179
0.000938906
0.000938507
0.000938064
0.000937634
0.000937255
0.000936955
0.000936763
0.000936707
0.000936823
0.000937131
0.000937643
0.000938327
0.000939084
0.00093997
0.000940701
0.000941889
0.000933947
0.000936833
0.000937874
0.000937856
0.000937497
0.000936997
0.000936456
0.000935937
0.000935482
0.000935123
0.000934888
0.000934809
0.000934919
0.000935246
0.000935839
0.000936732
0.000937681
0.000938838
0.000939373
0.000935382
0.000936559
0.000936978
0.000936599
0.000935999
0.000935325
0.000934646
0.000934019
0.000933484
0.000933073
0.000932817
0.00093275
0.000932912
0.00093335
0.000934141
0.000935278
0.00093658
0.000938128
0.000937769
0.000940686
0.000937448
0.000936403
0.000935357
0.000934368
0.000933458
0.000932609
0.00093186
0.000931245
0.000930796
0.000930541
0.000930515
0.000930752
0.000931288
0.000932174
0.000933305
0.000934586
0.000935868
0.000936448
0.000932924
0.000933629
0.000933375
0.000932324
0.000931274
0.000930277
0.000929409
0.000928719
0.000928242
0.000928005
0.00092803
0.000928331
0.000928911
0.000929763
0.00093076
0.00093173
0.000933912
0.000936309
0.000940154
0.000933388
0.000932205
0.000930363
0.000928908
0.000927654
0.000926619
0.000925836
0.000925331
0.000925121
0.000925214
0.000925604
0.000926265
0.000927163
0.000928176
0.000928805
0.000931592
0.000923251
0.0009278
0.000927268
0.000925932
0.000924544
0.000923365
0.000922485
0.000921949
0.000921769
0.000921938
0.000922429
0.000923189
0.000924189
0.000925523
0.000927218
0.000932816
0.000923964
0.000926967
0.000924996
0.000922997
0.00092108
0.000919611
0.000918566
0.00091797
0.000917808
0.000918049
0.000918624
0.000919416
0.000920249
0.000921062
0.000921555
0.000933775
0.000932363
0.000924158
0.000920061
0.000917091
0.000915186
0.000913926
0.00091325
0.000913115
0.000913476
0.000914244
0.000915266
0.000916159
0.000916461
0.00091606
0.000943113
0.000923048
0.000916487
0.000912275
0.000909845
0.000908375
0.000907612
0.000907509
0.000908045
0.000909176
0.000910802
0.000912452
0.000913434
0.000912635
0.000907873
0.000898265
0.000904131
0.000903974
0.000902673
0.00090152
0.000900798
0.000900732
0.000901458
0.000903109
0.000905821
0.000909132
0.000913039
0.000914472
0.000911267
0.000889555
0.000895594
0.000896502
0.000895259
0.000893848
0.000892855
0.000892553
0.000893144
0.000894853
0.000897994
0.000901828
0.000908201
0.000911503
0.000913796
0.000892289
0.000892412
0.000890464
0.000887787
0.000885441
0.000883793
0.000882956
0.000883108
0.000884656
0.000888433
0.00089462
0.000905316
0.000907499
0.000910523
0.000894903
0.00088553
0.000880024
0.000876162
0.000873595
0.000871973
0.000871255
0.00087174
0.000874204
0.000880223
0.000891618
0.000911797
0.000879798
0.000873138
0.0008692
0.000864972
0.000862004
0.000859774
0.000858003
0.000856601
0.000855517
0.000855472
0.00085268
0.000908607
0.000871642
0.000860834
0.000853662
0.000849723
0.000846893
0.00084412
0.000840763
0.00083592
0.000828303
0.000811199
0.000783026
0.000783398
0.000827419
0.000836225
0.000836252
0.000835101
0.000833434
0.000831003
0.000827608
0.00082292
0.000816544
0.000803868
0.00078428
0.000782451
0.000795256
0.000809612
0.000817193
0.000819655
0.000819707
0.00081787
0.000814243
0.00080858
0.00080052
0.000786464
0.000771926
0.000765653
0.000752311
0.000774455
0.000790436
0.000801317
0.000805791
0.000807103
0.000805979
0.000802768
0.000797526
0.000790219
0.000779168
0.000766996
0.000755258
0.000749096
0.000736628
0.000731225
0.000742559
0.000768967
0.000786242
0.00079312
0.000795584
0.00079511
0.000792418
0.000787867
0.000781679
0.000773293
0.000763344
0.000752234
0.000748838
0.000735115
0.000727299
0.000646636
0.000645034
0.00072188
0.000757283
0.000774893
0.000782561
0.000785336
0.000784941
0.000782273
0.000777773
0.000771657
0.00076373
0.000753261
0.00074467
0.000740329
0.000717192
0.00070201
0.000687839
0.000712345
0.000726624
0.000726665
0.000716192
0.000694457
0.000698872
0.000711738
0.000743482
0.000761049
0.000770626
0.000775352
0.000776712
0.000775532
0.000772357
0.000767473
0.000761021
0.000752974
0.000742318
0.000733188
0.00072019
0.000697998
0.000687668
0.000675936
0.0006639
0.000758666
0.000776358
0.000772896
0.000760047
0.000748706
0.000750786
0.000747542
0.000741267
0.000731129
0.000732788
0.000739596
0.000752434
0.000761265
0.000766535
0.000768812
0.000768659
0.000766511
0.000762681
0.000757345
0.000750593
0.000742432
0.000732151
0.000722476
0.000710811
0.000693276
0.000677874
0.000664057
0.000650902
0.000636158
0.000635567
0.000450854
0.000451033
0.00045121
0.000451268
0.000451281
0.000802353
0.00082056
0.000810751
0.000790034
0.000794024
0.000786871
0.000775972
0.000768504
0.000766229
0.000761857
0.000756999
0.000751436
0.000750009
0.000752001
0.000756959
0.000760588
0.000762452
0.000762472
0.000760795
0.000757596
0.000753022
0.000747173
0.000740119
0.000731897
0.000722064
0.000712218
0.000700311
0.00068064
0.000665056
0.00065114
0.000640176
0.000634016
0.000634714
0.000450657
0.000450914
0.000451137
0.000451239
0.000451304
0.000999222
0.00102238
0.00085329
0.000874986
0.000862146
0.000836318
0.000835919
0.000822354
0.000807984
0.000804717
0.000797337
0.000788944
0.000781466
0.000776057
0.000770666
0.000765645
0.000760929
0.000758276
0.00075752
0.000758197
0.000758416
0.000757699
0.000755825
0.000752746
0.00074848
0.000743054
0.000736479
0.000728734
0.000719751
0.000709152
0.000697807
0.000684403
0.000667091
0.000650617
0.000634988
0.000626354
0.00062452
0.000629482
0.000449467
0.000450219
0.00045075
0.000451104
0.000451314
0.000451476
0.000994171
0.000985253
0.000941518
0.000899646
0.000890772
0.000871671
0.000852071
0.000843989
0.000832133
0.00082027
0.00081291
0.000804556
0.000796177
0.000788491
0.000781938
0.000775845
0.000770308
0.000765315
0.000761524
0.000758815
0.000756841
0.00075472
0.00075207
0.000748653
0.000744352
0.000739106
0.00073288
0.000725638
0.000717324
0.000707813
0.000696785
0.000684513
0.000669531
0.000652386
0.000633488
0.000619877
0.00061292
0.000608842
0.000580834
0.000523451
0.000508612
0.000510077
0.000445972
0.000447296
0.000447974
0.00044884
0.000449367
0.000450105
0.000450709
0.000451169
0.000451546
0.000451862
0.000994839
0.000975368
0.000943417
0.000912795
0.000894849
0.000877207
0.000860459
0.000849138
0.000837668
0.000826728
0.000817966
0.000808911
0.000800108
0.000791984
0.000784668
0.000777923
0.000771766
0.000766169
0.000761342
0.000757181
0.000753436
0.000749648
0.000745528
0.000740865
0.000735523
0.000729408
0.000722447
0.000714576
0.000705713
0.000695709
0.000684333
0.000671673
0.000656847
0.000640967
0.000624208
0.00060947
0.000597403
0.0005866
0.000554287
0.000518933
0.000505905
0.000504306
0.000491217
0.000482008
0.000485252
0.000444831
0.000449999
0.000451037
0.0004509
0.000449565
0.000447232
0.000446378