/*--------------------------------*- C++ -*----------------------------------*\
| =========                 |                                                 |
| \\      /  F ield         | OpenFOAM: The Open Source CFD Toolbox           |
|  \\    /   O peration     | Version:  2412                                  |
|   \\  /    A nd           | Website:  www.openfoam.com                      |
|    \\/     M anipulation  |                                                 |
\*---------------------------------------------------------------------------*/
FoamFile
{
    version     2.0;
    format      ascii;
    arch        "LSB;label=32;scalar=64";
    class       surfaceScalarField;
    location    "150";
    object      phi;
}
// * * * * * * * * * * * * * * * * * * * * * * * * * * * * * * * * * * * * * //

dimensions      [0 3 -1 0 0 0 0];

oriented        oriented;

internalField   nonuniform List<scalar> 
116495
(
1.39786e-17
2.30972e-25
-1.1497e-23
1.39786e-17
-2.04324e-25
-1.53427e-23
1.39786e-17
5.93759e-25
-2.09617e-24
1.39786e-17
3.52798e-25
-4.33178e-24
1.39786e-17
4.08915e-25
-1.77762e-24
1.39786e-17
3.63492e-25
-1.09624e-24
1.39786e-17
2.80495e-25
-6.00919e-25
1.39786e-17
2.29318e-25
2.29716e-26
1.39786e-17
1.59829e-25
1.18485e-25
1.39786e-17
1.15733e-25
1.79954e-25
1.39786e-17
6.04462e-26
1.38685e-25
1.39786e-17
2.95651e-26
1.12533e-25
1.39786e-17
-5.32926e-28
7.7054e-26
1.39786e-17
-1.05401e-26
8.83116e-26
1.39786e-17
-2.32359e-26
7.23877e-26
1.39786e-17
-2.27873e-26
7.51012e-26
1.39786e-17
-2.8117e-26
6.29515e-26
1.39786e-17
-2.59104e-26
7.29374e-26
1.39786e-17
-2.4272e-26
7.16115e-26
1.39786e-17
-1.57754e-26
7.90204e-26
1.39786e-17
-9.74595e-27
7.97488e-26
1.39786e-17
-3.35858e-27
8.54376e-26
1.39786e-17
-2.91772e-28
8.49124e-26
1.39786e-17
3.77423e-27
8.6576e-26
1.39786e-17
6.68619e-27
8.19303e-26
1.39786e-17
1.1535e-26
8.08154e-26
1.39786e-17
1.26622e-26
7.83916e-26
1.39786e-17
1.45725e-26
8.25153e-26
1.39786e-17
1.05195e-26
7.92456e-26
1.39786e-17
1.0411e-26
7.982e-26
1.39786e-17
6.47794e-27
7.16911e-26
1.39786e-17
7.58157e-27
7.08084e-26
1.39786e-17
3.60949e-27
6.26032e-26
1.39786e-17
3.52132e-27
6.37518e-26
1.39786e-17
-1.29953e-27
5.74964e-26
1.39786e-17
5.79739e-29
5.9428e-26
1.39786e-17
-9.91334e-28
5.16739e-26
1.39786e-17
3.31014e-27
5.22914e-26
1.39786e-17
-2.37095e-28
4.19323e-26
1.39786e-17
-1.67235e-27
3.95222e-26
1.39786e-17
-9.09542e-27
2.85124e-26
1.39786e-17
-1.09311e-26
2.20124e-26
1.39786e-17
-9.41475e-27
1.11467e-26
1.39786e-17
1.16576e-29
9.7446e-27
1.39786e-17
5.84223e-27
5.16441e-27
1.39786e-17
1.09461e-26
9.36899e-27
1.39786e-17
5.04988e-27
5.39096e-28
1.39786e-17
1.46255e-27
-3.12508e-27
1.39786e-17
-6.63052e-27
-1.65378e-26
1.39786e-17
-7.41232e-27
-2.16642e-26
1.39786e-17
-9.50747e-27
-3.35075e-26
1.39786e-17
-5.71689e-27
-3.56447e-26
1.39786e-17
-8.75302e-27
-4.54397e-26
1.39786e-17
-1.0018e-26
-4.79455e-26
1.39786e-17
-1.61525e-26
-5.41152e-26
1.39786e-17
-1.74294e-26
-5.88713e-26
1.39786e-17
-1.44116e-26
-6.68532e-26
1.39786e-17
-4.76074e-27
-6.82939e-26
1.39786e-17
1.7724e-27
-6.82389e-26
1.39786e-17
5.46512e-27
-6.14031e-26
1.39786e-17
4.76476e-28
-6.21735e-26
1.39786e-17
-3.7998e-27
-6.8536e-26
1.39786e-17
-4.08942e-27
-7.68846e-26
1.39786e-17
8.089e-28
-7.64664e-26
1.39786e-17
3.24426e-27
-7.1621e-26
1.39786e-17
4.64273e-27
-5.97152e-26
1.39786e-17
-1.09567e-27
-5.98283e-26
1.39786e-17
-4.57123e-27
-5.9697e-26
1.39786e-17
-7.50327e-27
-6.68334e-26
1.39786e-17
-4.8203e-27
-6.53332e-26
1.39786e-17
-2.2712e-27
-6.00547e-26
1.39786e-17
1.94954e-27
-4.39832e-26
1.39786e-17
3.44963e-27
-3.12799e-26
1.39786e-17
7.1024e-27
-1.39564e-26
1.39786e-17
9.21391e-27
-2.96117e-27
1.39786e-17
1.34922e-26
8.68734e-27
1.39786e-17
1.67111e-26
1.38719e-26
1.39786e-17
2.0503e-26
1.57397e-26
1.39786e-17
2.31809e-26
1.54898e-26
1.39786e-17
2.65754e-26
1.05238e-26
1.39786e-17
3.1773e-26
1.45151e-26
1.39786e-17
4.15455e-26
3.5427e-26
1.39786e-17
4.76252e-26
6.05654e-26
1.39786e-17
5.40458e-26
8.27658e-26
1.39786e-17
4.83265e-26
4.58676e-26
1.39786e-17
4.91079e-26
-1.41812e-27
1.39786e-17
5.46786e-26
-4.75522e-26
1.39786e-17
8.68831e-26
2.65621e-26
1.39786e-17
7.80771e-26
1.7242e-26
1.39786e-17
7.30128e-26
9.96171e-26
1.39786e-17
-2.22319e-26
4.05401e-27
1.39786e-17
-8.10992e-26
2.07399e-25
1.39786e-17
-1.93861e-25
6.3111e-25
1.39786e-17
-2.72295e-25
1.45747e-24
1.39786e-17
-3.57698e-25
2.42347e-24
1.39786e-17
-3.97429e-25
3.66643e-24
1.39786e-17
-3.69073e-25
5.21496e-24
1.39786e-17
-3.52058e-25
7.1952e-24
1.39786e-17
-1.25755e-25
1.78984e-23
6.03583e-25
2.76404e-23
1.95431e-17
-3.75747e-26
-1.16052e-23
1.95431e-17
2.95433e-25
-1.93699e-23
1.95431e-17
-1.73025e-25
-1.30105e-24
1.95431e-17
1.72845e-25
-4.52185e-24
1.95431e-17
1.77529e-25
-1.71084e-24
1.95431e-17
1.94239e-25
-9.13345e-25
1.95431e-17
1.92282e-25
-5.22867e-25
1.95431e-17
1.62205e-25
3.77657e-26
1.95431e-17
1.28045e-25
1.27134e-25
1.95431e-17
8.07538e-26
1.441e-25
1.95431e-17
3.72723e-26
1.20145e-25
1.95431e-17
1.70652e-27
6.44915e-26
1.95431e-17
-1.81263e-26
4.69073e-26
1.95431e-17
-2.8999e-26
4.37394e-26
1.95431e-17
-3.0717e-26
4.67532e-26
1.95431e-17
-2.99423e-26
4.31133e-26
1.95431e-17
-2.51248e-26
4.69093e-26
1.95431e-17
-2.07049e-26
5.28813e-26
1.95431e-17
-1.25764e-26
6.45411e-26
1.95431e-17
-4.05352e-27
7.49982e-26
1.95431e-17
4.96968e-27
8.74058e-26
1.95431e-17
1.06134e-26
9.48986e-26
1.95431e-17
1.5419e-26
1.0229e-25
1.95431e-17
1.90153e-26
1.04518e-25
1.95431e-17
2.31757e-26
1.04443e-25
1.95431e-17
2.66304e-26
1.04279e-25
1.95431e-17
2.8085e-26
1.05676e-25
1.95431e-17
2.64006e-26
1.0657e-25
1.95431e-17
2.33291e-26
1.03584e-25
1.95431e-17
2.01365e-26
9.80995e-26
1.95431e-17
1.77594e-26
9.14916e-26
1.95431e-17
1.54727e-26
8.48128e-26
1.95431e-17
1.29999e-26
7.89644e-26
1.95431e-17
9.60174e-27
7.34902e-26
1.95431e-17
6.72505e-27
6.98217e-26
1.95431e-17
5.48848e-27
6.63516e-26
1.95431e-17
6.60778e-27
6.35732e-26
1.95431e-17
7.0645e-27
5.91481e-26
1.95431e-17
5.22163e-27
5.2342e-26
1.95431e-17
6.77502e-29
4.29749e-26
1.95431e-17
-5.65684e-27
3.28159e-26
1.95431e-17
-9.11732e-27
2.20256e-26
1.95431e-17
-6.15346e-27
1.44649e-26
1.95431e-17
1.61649e-27
1.25677e-26
1.95431e-17
8.86424e-27
1.45852e-26
1.95431e-17
1.05801e-26
1.30084e-26
1.95431e-17
6.91206e-27
5.93276e-27
1.95431e-17
1.77323e-28
-5.96127e-27
1.95431e-17
-5.92393e-27
-1.84319e-26
1.95431e-17
-9.66224e-27
-2.97785e-26
1.95431e-17
-1.01987e-26
-3.82084e-26
1.95431e-17
-1.05932e-26
-4.55741e-26
1.95431e-17
-1.27691e-26
-5.36931e-26
1.95431e-17
-1.75751e-26
-6.17097e-26
1.95431e-17
-2.30694e-26
-6.94577e-26
1.95431e-17
-2.5518e-26
-7.58412e-26
1.95431e-17
-2.13033e-26
-8.17574e-26
1.95431e-17
-1.25641e-26
-8.19234e-26
1.95431e-17
-5.28413e-27
-7.66468e-26
1.95431e-17
-4.1453e-27
-7.14465e-26
1.95431e-17
-8.36727e-27
-7.33434e-26
1.95431e-17
-1.20617e-26
-7.85455e-26
1.95431e-17
-1.10336e-26
-8.55215e-26
1.95431e-17
-6.01117e-27
-8.34081e-26
1.95431e-17
-2.03835e-27
-7.37434e-26
1.95431e-17
-2.42898e-27
-6.46725e-26
1.95431e-17
-5.57177e-27
-6.00712e-26
1.95431e-17
-1.00447e-26
-6.32606e-26
1.95431e-17
-1.11765e-26
-6.54927e-26
1.95431e-17
-1.01899e-26
-6.5895e-26
1.95431e-17
-6.53564e-27
-5.63879e-26
1.95431e-17
-4.39496e-27
-4.63985e-26
1.95431e-17
-1.51316e-27
-3.08873e-26
1.95431e-17
-1.15763e-28
-1.91354e-26
1.95431e-17
2.76946e-27
-4.83983e-27
1.95431e-17
4.85772e-27
4.01408e-27
1.95431e-17
8.53788e-27
1.37696e-26
1.95431e-17
1.12547e-26
1.86103e-26
1.95431e-17
1.58046e-26
2.47308e-26
1.95431e-17
2.17733e-26
3.13866e-26
1.95431e-17
3.20082e-26
4.87569e-26
1.95431e-17
4.63374e-26
8.13679e-26
1.95431e-17
6.1493e-26
1.22753e-25
1.95431e-17
7.16817e-26
1.50871e-25
1.95431e-17
7.84291e-26
1.47127e-25
1.95431e-17
9.21242e-26
1.26885e-25
1.95431e-17
1.22702e-25
1.40328e-25
1.95431e-17
1.61566e-25
1.87594e-25
1.95431e-17
1.88266e-25
2.39487e-25
1.95431e-17
1.61166e-25
2.16499e-25
1.95431e-17
1.07725e-25
2.30241e-25
1.95431e-17
3.10763e-26
3.3822e-25
1.95431e-17
-2.77634e-26
7.492e-25
1.95431e-17
-7.442e-26
1.41663e-24
1.95431e-17
-6.26902e-26
2.39685e-24
1.95431e-17
-3.60355e-26
3.68751e-24
1.95431e-17
4.62767e-26
5.44796e-24
1.95431e-17
3.72593e-25
7.86947e-24
1.95431e-17
6.13882e-25
2.00957e-23
1.28735e-25
3.17242e-23
1.39786e-17
-1.17372e-23
1.39786e-17
-1.49798e-23
1.39786e-17
-1.96961e-24
1.39786e-17
-4.15033e-24
1.39786e-17
-1.67665e-24
1.39786e-17
-1.04442e-24
1.39786e-17
-5.82898e-25
1.39786e-17
-3.42043e-26
1.39786e-17
9.46641e-26
1.39786e-17
1.44933e-25
1.39786e-17
1.40773e-25
1.39786e-17
1.04924e-25
1.39786e-17
8.58382e-26
1.39786e-17
7.90548e-26
1.39786e-17
7.418e-26
1.39786e-17
7.33941e-26
1.39786e-17
7.25201e-26
1.39786e-17
7.60178e-26
1.39786e-17
8.10405e-26
1.39786e-17
8.9325e-26
1.39786e-17
9.63389e-26
1.39786e-17
1.01441e-25
1.39786e-17
1.0382e-25
1.39786e-17
1.04859e-25
1.39786e-17
1.04763e-25
1.39786e-17
1.04109e-25
1.39786e-17
1.0274e-25
1.39786e-17
9.92795e-26
1.39786e-17
9.35382e-26
1.39786e-17
8.63372e-26
1.39786e-17
7.88552e-26
1.39786e-17
7.16717e-26
1.39786e-17
6.52578e-26
1.39786e-17
5.98896e-26
1.39786e-17
5.58763e-26
1.39786e-17
5.32311e-26
1.39786e-17
5.17584e-26
1.39786e-17
4.89445e-26
1.39786e-17
4.27747e-26
1.39786e-17
3.39344e-26
1.39786e-17
2.38164e-26
1.39786e-17
1.47033e-26
1.39786e-17
1.0417e-26
1.39786e-17
1.27331e-26
1.39786e-17
1.73375e-26
1.39786e-17
1.70273e-26
1.39786e-17
9.43387e-27
1.39786e-17
-2.36632e-27
1.39786e-17
-1.516e-26
1.39786e-17
-2.60396e-26
1.39786e-17
-3.37177e-26
1.39786e-17
-4.06788e-26
1.39786e-17
-4.89348e-26
1.39786e-17
-5.83342e-26
1.39786e-17
-6.72977e-26
1.39786e-17
-7.42863e-26
1.39786e-17
-7.69008e-26
1.39786e-17
-7.42991e-26
1.39786e-17
-6.87779e-26
1.39786e-17
-6.68288e-26
1.39786e-17
-7.03805e-26
1.39786e-17
-7.72431e-26
1.39786e-17
-8.05618e-26
1.39786e-17
-7.65279e-26
1.39786e-17
-6.75522e-26
1.39786e-17
-5.9666e-26
1.39786e-17
-5.77514e-26
1.39786e-17
-5.86502e-26
1.39786e-17
-5.93511e-26
1.39786e-17
-5.24374e-26
1.39786e-17
-4.0087e-26
1.39786e-17
-2.27312e-26
1.39786e-17
-5.69375e-27
1.39786e-17
1.19236e-26
1.39786e-17
2.64444e-26
1.39786e-17
3.86178e-26
1.39786e-17
4.55676e-26
1.39786e-17
4.84117e-26
1.39786e-17
4.72311e-26
1.39786e-17
4.58282e-26
1.39786e-17
4.99529e-26
1.39786e-17
6.31076e-26
1.39786e-17
8.02794e-26
1.39786e-17
8.22074e-26
1.39786e-17
5.94566e-26
1.39786e-17
2.96795e-26
1.39786e-17
3.7869e-26
1.39786e-17
8.58707e-26
1.39786e-17
1.38965e-25
1.39786e-17
1.60898e-25
1.39786e-17
1.9641e-25
1.39786e-17
4.02123e-25
1.39786e-17
8.50625e-25
1.39786e-17
1.63007e-24
1.39786e-17
2.64666e-24
1.39786e-17
3.90682e-24
1.39786e-17
5.3516e-24
1.39786e-17
7.35388e-24
1.39786e-17
1.79692e-23
2.80076e-23
1.47433e-17
-2.55526e-24
-9.63582e-24
1.47433e-17
-2.74103e-24
-1.34094e-23
1.47433e-17
-9.52497e-26
-9.23776e-25
1.47433e-17
-4.64016e-25
-3.39155e-24
1.47433e-17
-1.29834e-26
-1.1255e-24
1.47433e-17
1.59735e-26
-7.44399e-25
1.47433e-17
-1.99929e-26
-3.99215e-25
1.47433e-17
-4.01999e-26
8.84863e-26
1.47433e-17
-6.74863e-26
1.92314e-25
1.47433e-17
-8.48254e-26
2.38522e-25
1.47433e-17
-7.76232e-26
2.49768e-25
1.47433e-17
-8.48342e-26
1.99302e-25
1.47433e-17
-7.28422e-26
1.5976e-25
1.47433e-17
-6.60237e-26
1.15838e-25
1.47433e-17
-4.91276e-26
8.44056e-26
1.47433e-17
-3.58976e-26
5.20168e-26
1.47433e-17
-1.619e-26
3.14644e-26
1.47433e-17
-2.13267e-27
1.63175e-26
1.47433e-17
9.30656e-27
8.52084e-27
1.47433e-17
1.65222e-26
3.87407e-27
1.47433e-17
2.17805e-26
3.80327e-27
1.47433e-17
2.67709e-26
4.26347e-27
1.47433e-17
3.08886e-26
7.25556e-27
1.47433e-17
3.26223e-26
1.12811e-26
1.47433e-17
3.22622e-26
1.67778e-26
1.47433e-17
3.09982e-26
2.04172e-26
1.47433e-17
3.16929e-26
2.44953e-26
1.47433e-17
3.28287e-26
2.54749e-26
1.47433e-17
3.61729e-26
2.65048e-26
1.47433e-17
3.73036e-26
2.45683e-26
1.47433e-17
3.91775e-26
2.45356e-26
1.47433e-17
3.78448e-26
2.27528e-26
1.47433e-17
3.78976e-26
2.37775e-26
1.47433e-17
3.5396e-26
2.23713e-26
1.47433e-17
3.50437e-26
2.35407e-26
1.47433e-17
3.11542e-26
2.13361e-26
1.47433e-17
2.90763e-26
2.15436e-26
1.47433e-17
2.56994e-26
1.75682e-26
1.47433e-17
2.79721e-26
1.34241e-26
1.47433e-17
3.08531e-26
4.47854e-27
1.47433e-17
3.56308e-26
-1.89974e-27
1.47433e-17
3.25565e-26
-7.51437e-27
1.47433e-17
2.26582e-26
-8.94942e-27
1.47433e-17
7.90644e-27
-9.16588e-27
1.47433e-17
-3.11681e-27
-5.70471e-27
1.47433e-17
-1.19297e-26
-5.51009e-27
1.47433e-17
-1.46321e-26
-5.09723e-27
1.47433e-17
-1.84118e-26
-9.58925e-27
1.47433e-17
-1.95424e-26
-1.20406e-26
1.47433e-17
-2.4449e-26
-1.65134e-26
1.47433e-17
-2.75408e-26
-1.71026e-26
1.47433e-17
-3.16166e-26
-2.01837e-26
1.47433e-17
-2.97802e-26
-2.2497e-26
1.47433e-17
-2.6548e-26
-2.82391e-26
1.47433e-17
-2.06579e-26
-3.13692e-26
1.47433e-17
-2.06987e-26
-3.25819e-26
1.47433e-17
-2.62589e-26
-3.02955e-26
1.47433e-17
-3.40106e-26
-2.73649e-26
1.47433e-17
-3.60405e-26
-2.39079e-26
1.47433e-17
-3.21707e-26
-2.51094e-26
1.47433e-17
-2.27705e-26
-2.7122e-26
1.47433e-17
-1.75026e-26
-3.04744e-26
1.47433e-17
-1.79006e-26
-3.1798e-26
1.47433e-17
-2.11844e-26
-3.22335e-26
1.47433e-17
-1.93141e-26
-3.04321e-26
1.47433e-17
-1.31759e-26
-3.29066e-26
1.47433e-17
-9.82053e-28
-3.69569e-26
1.47433e-17
8.93522e-27
-4.50172e-26
1.47433e-17
1.51561e-26
-5.19982e-26
1.47433e-17
1.70863e-26
-5.44559e-26
1.47433e-17
1.62058e-26
-5.33444e-26
1.47433e-17
1.54158e-26
-4.87207e-26
1.47433e-17
1.4231e-26
-4.18726e-26
1.47433e-17
1.36729e-26
-3.28375e-26
1.47433e-17
1.3467e-26
-2.20329e-26
1.47433e-17
1.48302e-26
-9.89313e-27
1.47433e-17
1.74345e-26
3.62482e-27
1.47433e-17
2.30701e-26
1.77213e-26
1.47433e-17
3.00358e-26
3.08213e-26
1.47433e-17
4.07409e-26
4.19529e-26
1.47433e-17
5.16757e-26
4.96355e-26
1.47433e-17
6.87311e-26
5.25381e-26
1.47433e-17
9.19162e-26
4.73917e-26
1.47433e-17
1.2725e-25
2.54262e-26
1.47433e-17
1.76041e-25
-2.10596e-26
1.47433e-17
2.22318e-25
-9.485e-26
1.47433e-17
2.64538e-25
-1.7155e-25
1.47433e-17
2.90752e-25
-2.39186e-25
1.47433e-17
3.17623e-25
-2.64665e-25
1.47433e-17
3.47594e-25
-3.24942e-25
1.47433e-17
4.05492e-25
-3.53959e-25
1.47433e-17
4.20569e-25
-3.39056e-25
1.47433e-17
4.1991e-25
-8.53979e-26
1.47433e-17
3.74838e-25
4.51143e-25
1.47433e-17
3.66382e-25
1.2324e-24
1.47433e-17
4.29377e-25
2.22271e-24
1.47433e-17
7.59287e-25
3.28809e-24
1.47433e-17
1.31963e-24
4.69609e-24
1.47433e-17
3.2649e-24
1.45872e-23
5.40964e-24
2.42091e-23
2.4866e-17
-3.58147e-24
-1.25032e-23
2.48661e-17
-3.47784e-24
-2.01758e-23
2.48661e-17
-8.01808e-25
-1.44912e-24
2.48661e-17
-8.09305e-25
-4.99206e-24
2.48661e-17
-2.35111e-25
-1.94065e-24
2.48661e-17
-1.17708e-25
-1.32195e-24
2.48661e-17
-1.26279e-25
-8.70216e-25
2.48661e-17
-8.50229e-26
-1.96253e-25
2.48661e-17
-1.12517e-25
-4.89004e-26
2.48661e-17
-9.57593e-26
9.31155e-26
2.48661e-17
-1.04295e-25
1.0621e-25
2.48661e-17
-8.95437e-26
1.00152e-25
2.48661e-17
-1.04336e-25
7.34099e-26
2.48661e-17
-9.17656e-26
8.3594e-26
2.48661e-17
-9.53836e-26
6.59837e-26
2.48661e-17
-7.43392e-26
6.5768e-26
2.48661e-17
-6.05039e-26
5.4407e-26
2.48661e-17
-4.00487e-26
5.98219e-26
2.48661e-17
-3.12376e-26
6.12382e-26
2.48661e-17
-2.22738e-26
6.90362e-26
2.48661e-17
-1.7033e-26
7.16972e-26
2.48661e-17
-8.57368e-27
7.76978e-26
2.48661e-17
-2.73872e-27
8.11066e-26
2.48661e-17
2.36929e-27
8.68952e-26
2.48661e-17
3.51262e-27
8.77121e-26
2.48661e-17
6.98359e-27
9.11223e-26
2.48661e-17
8.90739e-27
8.87732e-26
2.48661e-17
1.87267e-26
9.03315e-26
2.48661e-17
2.37688e-26
8.38007e-26
2.48661e-17
3.40914e-26
8.27432e-26
2.48661e-17
3.48251e-26
7.40298e-26
2.48661e-17
4.04333e-26
7.39001e-26
2.48661e-17
3.60163e-26
6.62079e-26
2.48661e-17
3.85032e-26
6.8097e-26
2.48661e-17
3.15195e-26
6.08283e-26
2.48661e-17
3.12379e-26
6.2833e-26
2.48661e-17
2.18462e-26
5.40487e-26
2.48661e-17
2.46054e-26
5.34059e-26
2.48661e-17
2.33131e-26
4.08064e-26
2.48661e-17
3.46656e-26
3.65119e-26
2.48661e-17
3.6071e-26
2.43538e-26
2.48661e-17
3.35681e-26
1.92089e-26
2.48661e-17
1.51968e-26
8.8805e-27
2.48661e-17
-2.43568e-27
7.35092e-27
2.48661e-17
-2.16883e-26
8.67606e-28
2.48661e-17
-2.54466e-26
3.18719e-27
2.48661e-17
-3.21348e-26
-6.97165e-27
2.48661e-17
-2.86036e-26
-9.34099e-27
2.48661e-17
-3.44238e-26
-2.25527e-26
2.48661e-17
-3.40128e-26
-2.52733e-26
2.48661e-17
-4.2551e-26
-3.72177e-26
2.48661e-17
-3.94027e-26
-3.94722e-26
2.48661e-17
-3.90556e-26
-5.09638e-26
2.48661e-17
-2.61634e-26
-5.39229e-26
2.48661e-17
-2.03187e-26
-6.22211e-26
2.48661e-17
-1.74043e-26
-6.44963e-26
2.48661e-17
-2.63778e-26
-7.0129e-26
2.48661e-17
-3.30499e-26
-6.91251e-26
2.48661e-17
-3.65597e-26
-7.10091e-26
2.48661e-17
-2.32428e-26
-6.6195e-26
2.48661e-17
-1.10987e-26
-6.85581e-26
2.48661e-17
-1.86577e-27
-6.89705e-26
2.48661e-17
-5.86372e-27
-7.32891e-26
2.48661e-17
-9.8789e-27
-6.96609e-26
2.48661e-17
-1.28389e-26
-6.95296e-26
2.48661e-17
1.08814e-27
-6.07566e-26
2.48661e-17
1.33236e-26
-6.29967e-26
2.48661e-17
2.76427e-26
-6.33209e-26
2.48661e-17
3.19853e-26
-6.69644e-26
2.48661e-17
2.98521e-26
-6.64761e-26
2.48661e-17
2.36806e-26
-6.09724e-26
2.48661e-17
1.72158e-26
-5.12628e-26
2.48661e-17
1.16947e-26
-4.01978e-26
2.48661e-17
8.80882e-27
-2.82305e-26
2.48661e-17
8.8909e-27
-1.61349e-26
2.48661e-17
1.28588e-26
-4.14332e-27
2.48661e-17
2.23207e-26
8.75415e-27
2.48661e-17
3.54921e-26
1.85877e-26
2.48661e-17
5.58388e-26
3.01533e-26
2.48661e-17
7.55574e-26
3.49841e-26
2.48661e-17
9.93119e-26
4.59315e-26
2.48661e-17
1.24271e-25
5.69463e-26
2.48661e-17
1.59267e-25
6.54965e-26
2.48661e-17
2.18517e-25
7.1912e-26
2.48661e-17
2.81146e-25
4.61563e-26
2.48661e-17
3.42108e-25
1.69839e-26
2.48661e-17
3.65068e-25
-9.39496e-27
2.48661e-17
4.05457e-25
4.0521e-26
2.48661e-17
3.84324e-25
2.55758e-26
2.48661e-17
4.64142e-25
1.10292e-25
2.48661e-17
4.53013e-25
1.13978e-25
2.48661e-17
4.78046e-25
3.58117e-25
2.48661e-17
3.96112e-25
7.92689e-25
2.48661e-17
3.41663e-25
1.58067e-24
2.48661e-17
3.45418e-25
2.64761e-24
2.48661e-17
4.96035e-25
3.98053e-24
2.48661e-17
1.0241e-24
5.77735e-24
2.4866e-17
2.08347e-24
8.27438e-24
2.4866e-17
4.83457e-24
2.14398e-23
7.27754e-24
3.26492e-23
3.03668e-17
-3.35067e-24
-1.52232e-23
3.03668e-17
-4.64723e-24
-2.28558e-23
3.03668e-17
-9.4521e-25
-2.92268e-24
3.03668e-17
-1.03563e-24
-6.52065e-24
3.03668e-17
-3.87789e-25
-2.78224e-24
3.03668e-17
-3.06082e-25
-2.05564e-24
3.03668e-17
-2.43362e-25
-1.34653e-24
3.03668e-17
-1.72506e-25
-5.49246e-25
3.03668e-17
-9.9802e-26
-2.28524e-25
3.03668e-17
-8.37772e-26
-6.80983e-26
3.03668e-17
-2.80877e-26
6.2748e-26
3.03668e-17
-4.17827e-26
4.19638e-26
3.03668e-17
-4.26094e-26
8.40325e-26
3.03668e-17
-7.7893e-26
8.40742e-26
3.03668e-17
-8.17472e-26
1.12139e-25
3.03668e-17
-9.52231e-26
1.0516e-25
3.03668e-17
-8.33371e-26
1.19271e-25
3.03668e-17
-8.45043e-26
1.19787e-25
3.03668e-17
-7.95792e-26
1.33339e-25
3.03668e-17
-8.31633e-26
1.37715e-25
3.03668e-17
-8.05824e-26
1.45691e-25
3.03668e-17
-7.88741e-26
1.4706e-25
3.03668e-17
-7.31698e-26
1.5199e-25
3.03668e-17
-7.06396e-26
1.50363e-25
3.03668e-17
-6.49865e-26
1.51223e-25
3.03668e-17
-6.33154e-26
1.45845e-25
3.03668e-17
-5.09486e-26
1.45438e-25
3.03668e-17
-4.34139e-26
1.36759e-25
3.03668e-17
-2.34792e-26
1.33946e-25
3.03668e-17
-1.64175e-26
1.20084e-25
3.03668e-17
-1.01919e-27
1.1646e-25
3.03668e-17
-2.60063e-27
1.02796e-25
3.03668e-17
5.01179e-27
1.02818e-25
3.03668e-17
-2.88281e-27
9.15329e-26
3.03668e-17
4.20526e-28
9.41237e-26
3.03668e-17
-1.09607e-26
8.34316e-26
3.03668e-17
-8.03539e-27
8.5023e-26
3.03668e-17
-1.43593e-26
7.07739e-26
3.03668e-17
-5.81212e-28
6.85372e-26
3.03668e-17
3.54414e-27
5.19709e-26
3.03668e-17
1.57405e-26
4.61324e-26
3.03668e-17
9.15951e-27
3.04674e-26
3.03668e-17
-1.14448e-27
2.36803e-26
3.03668e-17
-2.36005e-26
1.18988e-26
3.03668e-17
-3.02462e-26
1.45199e-26
3.03668e-17
-4.04323e-26
3.09587e-27
3.03668e-17
-3.02545e-26
1.37565e-27
3.03668e-17
-3.30308e-26
-1.74934e-26
3.03668e-17
-2.42731e-26
-2.32626e-26
3.03668e-17
-3.1481e-26
-4.153e-26
3.03668e-17
-2.57179e-26
-4.55597e-26
3.03668e-17
-2.89932e-26
-6.18927e-26
3.03668e-17
-1.31297e-26
-6.5441e-26
3.03668e-17
-4.68582e-27
-7.91089e-26
3.03668e-17
1.18671e-26
-8.42077e-26
3.03668e-17
1.3833e-26
-9.53445e-26
3.03668e-17
1.25363e-26
-1.00749e-25
3.03668e-17
3.4523e-27
-1.07646e-25
3.03668e-17
9.93856e-27
-1.02369e-25
3.03668e-17
1.85122e-26
-1.0376e-25
3.03668e-17
3.79936e-26
-1.02097e-25
3.03668e-17
4.30663e-26
-1.09416e-25
3.03668e-17
3.99563e-26
-1.11742e-25
3.03668e-17
2.5494e-26
-1.15252e-25
3.03668e-17
2.49205e-26
-1.02783e-25
3.03668e-17
2.54437e-26
-9.98336e-26
3.03668e-17
4.10152e-26
-9.16711e-26
3.03668e-17
4.82813e-26
-9.5688e-26
3.03668e-17
5.10235e-26
-9.5888e-26
3.03668e-17
4.49037e-26
-9.12784e-26
3.03668e-17
3.57693e-26
-7.95034e-26
3.03668e-17
2.6114e-26
-6.41157e-26
3.03668e-17
2.00619e-26
-4.65136e-26
3.03668e-17
1.72596e-26
-2.99499e-26
3.03668e-17
1.98312e-26
-1.50026e-26
3.03668e-17
2.75327e-26
-1.29586e-27
3.03668e-17
3.95543e-26
6.92294e-27
3.03668e-17
5.77801e-26
1.61727e-26
3.03668e-17
7.49223e-26
1.2645e-26
3.03668e-17
9.3225e-26
1.52875e-26
3.03668e-17
1.0233e-25
1.09648e-26
3.03668e-17
1.05878e-25
2.09092e-26
3.03668e-17
1.22788e-25
3.97617e-26
3.03668e-17
1.41737e-25
3.42479e-26
3.03668e-17
1.8089e-25
1.8813e-26
3.03668e-17
1.96128e-25
-2.83566e-26
3.03668e-17
2.10361e-25
2.48995e-26
3.03668e-17
1.6228e-25
5.10569e-26
3.03668e-17
2.02962e-25
2.26476e-25
3.03668e-17
1.59234e-25
2.40029e-25
3.03668e-17
2.13739e-25
5.16692e-25
3.03668e-17
1.49539e-25
8.66596e-25
3.03668e-17
1.07627e-25
1.66804e-24
3.03668e-17
4.03633e-26
2.79177e-24
3.03668e-17
1.04796e-26
4.23123e-24
3.03668e-17
1.25909e-25
6.06493e-24
3.03668e-17
6.04256e-25
8.32927e-24
3.03668e-17
1.75047e-24
1.14248e-23
3.03667e-17
5.51679e-24
2.60199e-23
8.368e-24
3.66841e-23
3.69221e-17
-5.2011e-24
-1.78084e-23
3.69221e-17
-7.46946e-24
-2.52778e-23
3.69221e-17
-8.53106e-27
-5.03262e-24
3.69221e-17
-7.31055e-25
-8.13148e-24
3.69221e-17
-9.84234e-26
-3.73731e-24
3.69221e-17
-1.89285e-26
-2.80474e-24
3.69221e-17
1.5184e-25
-2.03937e-24
3.69221e-17
5.06591e-25
-1.09569e-24
3.69221e-17
6.16142e-25
-8.34464e-25
3.69221e-17
7.12099e-25
-5.67506e-25
3.69221e-17
6.40769e-25
-4.24949e-25
3.69221e-17
5.46436e-25
-3.01436e-25
3.69221e-17
3.78932e-25
-2.0127e-25
3.69221e-17
2.43066e-25
-6.6744e-26
3.69221e-17
9.31308e-26
2.48494e-26
3.69221e-17
-9.01919e-27
1.16865e-25
3.69221e-17
-1.0034e-25
1.79001e-25
3.69221e-17
-1.56623e-25
2.36362e-25
3.69221e-17
-2.03504e-25
2.71062e-25
3.69221e-17
-2.28123e-25
2.99351e-25
3.69221e-17
-2.44895e-25
3.12509e-25
3.69221e-17
-2.46005e-25
3.19575e-25
3.69221e-17
-2.4352e-25
3.14325e-25
3.69221e-17
-2.32473e-25
3.05874e-25
3.69221e-17
-2.23288e-25
2.91974e-25
3.69221e-17
-2.05643e-25
2.78953e-25
3.69221e-17
-1.89211e-25
2.64214e-25
3.69221e-17
-1.59234e-25
2.51479e-25
3.69221e-17
-1.37271e-25
2.31651e-25
3.69221e-17
-1.08719e-25
2.15619e-25
3.69221e-17
-9.69774e-26
1.94855e-25
3.69221e-17
-8.03273e-26
1.83166e-25
3.69221e-17
-8.10463e-26
1.67419e-25
3.69221e-17
-7.39807e-26
1.61703e-25
3.69221e-17
-8.21651e-26
1.50363e-25
3.69221e-17
-7.96426e-26
1.47456e-25
3.69221e-17
-8.67359e-26
1.36867e-25
3.69221e-17
-7.28833e-26
1.3216e-25
3.69221e-17
-6.79385e-26
1.14687e-25
3.69221e-17
-4.94074e-26
1.01128e-25
3.69221e-17
-4.35369e-26
7.79724e-26
3.69221e-17
-3.80772e-26
5.92612e-26
3.69221e-17
-4.70407e-26
4.10041e-26
3.69221e-17
-4.71637e-26
3.69228e-26
3.69221e-17
-5.05736e-26
3.07015e-26
3.69221e-17
-3.44619e-26
2.63893e-26
3.69221e-17
-3.14712e-26
5.39345e-27
3.69221e-17
-1.66007e-26
-1.34298e-26
3.69221e-17
-1.66937e-26
-4.04189e-26
3.69221e-17
-5.85411e-27
-5.83259e-26
3.69221e-17
-4.14222e-27
-8.04457e-26
3.69221e-17
1.69828e-26
-9.46371e-26
3.69221e-17
3.21722e-26
-1.17551e-25
3.69221e-17
6.03506e-26
-1.36353e-25
3.69221e-17
7.93869e-26
-1.60357e-25
3.69221e-17
9.62462e-26
-1.81569e-25
3.69221e-17
1.01677e-25
-1.99028e-25
3.69221e-17
1.11653e-25
-2.02564e-25
3.69221e-17
1.20285e-25
-2.01189e-25
3.69221e-17
1.41442e-25
-1.9741e-25
3.69221e-17
1.5162e-25
-2.03943e-25
3.69221e-17
1.49094e-25
-2.1152e-25
3.69221e-17
1.27463e-25
-2.12304e-25
3.69221e-17
1.03776e-25
-1.93504e-25
3.69221e-17
7.47761e-26
-1.65854e-25
3.69221e-17
5.9931e-26
-1.32783e-25
3.69221e-17
3.93083e-26
-1.12214e-25
3.69221e-17
2.37711e-26
-9.54743e-26
3.69221e-17
2.10583e-27
-8.09843e-26
3.69221e-17
-1.56701e-26
-5.76763e-26
3.69221e-17
-3.05667e-26
-2.81108e-26
3.69221e-17
-3.55417e-26
4.39781e-27
3.69221e-17
-3.47432e-26
3.11077e-26
3.69221e-17
-2.11734e-26
5.22652e-26
3.69221e-17
1.46687e-28
6.31365e-26
3.69221e-17
3.07193e-26
6.44113e-26
3.69221e-17
6.51347e-26
5.72371e-26
3.69221e-17
9.55604e-26
4.07489e-26
3.69221e-17
1.18031e-25
2.4717e-26
3.69221e-17
1.13261e-25
7.49164e-27
3.69221e-17
8.38565e-26
1.00259e-26
3.69221e-17
3.21068e-26
4.47764e-26
3.69221e-17
-4.72771e-26
1.07096e-25
3.69221e-17
-1.4097e-25
1.86843e-25
3.69221e-17
-2.99795e-25
2.348e-25
3.69221e-17
-4.75201e-25
3.17282e-25
3.69221e-17
-7.05987e-25
4.49888e-25
3.69221e-17
-8.49876e-25
7.7501e-25
3.69221e-17
-1.11562e-24
1.05983e-24
3.69221e-17
-1.28074e-24
1.50019e-24
3.69221e-17
-1.61027e-24
1.87574e-24
3.69221e-17
-1.71748e-24
2.59085e-24
3.69221e-17
-1.74145e-24
3.59644e-24
3.69221e-17
-1.56055e-24
5.01439e-24
3.69221e-17
-1.40504e-24
6.73227e-24
3.69221e-17
-1.27088e-24
8.874e-24
3.69221e-17
-8.75601e-25
1.17664e-23
3.69221e-17
5.72326e-25
1.56456e-23
3.69221e-17
7.9928e-24
3.04523e-23
1.351e-23
4.04484e-23
5.50117e-17
-1.74853e-25
-2.10715e-23
5.50117e-17
4.4415e-25
-2.42735e-23
5.50117e-17
1.73982e-24
-8.80614e-24
5.50117e-17
1.9304e-24
-8.20439e-24
5.50117e-17
2.25017e-24
-3.71332e-24
5.50117e-17
2.23345e-24
-2.00858e-24
5.50117e-17
2.14897e-24
-1.03153e-24
5.50117e-17
1.9476e-24
-3.56994e-25
5.50117e-17
1.64404e-24
-3.06261e-25
5.50117e-17
1.27925e-24
-3.55443e-25
5.50117e-17
9.01127e-25
-4.2567e-25
5.50117e-17
5.45063e-25
-4.68415e-25
5.50117e-17
2.52342e-25
-4.41517e-25
5.50117e-17
1.23179e-26
-3.5541e-25
5.50117e-17
-1.58611e-25
-2.50169e-25
5.50117e-17
-2.83355e-25
-1.45176e-25
5.50117e-17
-3.54959e-25
-4.51102e-26
5.50117e-17
-3.9106e-25
4.93568e-26
5.50117e-17
-3.91364e-25
1.33045e-25
5.50117e-17
-3.71661e-25
2.0797e-25
5.50117e-17
-3.38256e-25
2.73576e-25
5.50117e-17
-3.03143e-25
3.24302e-25
5.50117e-17
-2.64139e-25
3.60945e-25
5.50117e-17
-2.26834e-25
3.84369e-25
5.50117e-17
-1.88067e-25
3.98337e-25
5.50117e-17
-1.52431e-25
4.04763e-25
5.50117e-17
-1.15267e-25
4.04651e-25
5.50117e-17
-8.67128e-26
3.92015e-25
5.50117e-17
-5.81418e-26
3.711e-25
5.50117e-17
-3.86458e-26
3.45662e-25
5.50117e-17
-1.95217e-26
3.21985e-25
5.50117e-17
-1.24545e-26
3.00015e-25
5.50117e-17
-8.77556e-27
2.81041e-25
5.50117e-17
-1.77317e-26
2.63955e-25
5.50117e-17
-2.52902e-26
2.49353e-25
5.50117e-17
-3.54362e-26
2.37189e-25
5.50117e-17
-3.54662e-26
2.26115e-25
5.50117e-17
-3.93059e-26
2.07849e-25
5.50117e-17
-4.15914e-26
1.8141e-25
5.50117e-17
-5.40282e-26
1.47535e-25
5.50117e-17
-6.55955e-26
1.09086e-25
5.50117e-17
-7.41676e-26
7.52262e-26
5.50117e-17
-6.65577e-26
5.65363e-26
5.50117e-17
-5.05959e-26
5.24754e-26
5.50117e-17
-2.96377e-26
5.0875e-26
5.50117e-17
-2.39045e-26
3.47679e-26
5.50117e-17
-2.49868e-26
5.04215e-27
5.50117e-17
-3.73396e-26
-3.29581e-26
5.50117e-17
-4.48979e-26
-7.03216e-26
5.50117e-17
-5.01046e-26
-1.02205e-25
5.50117e-17
-4.05458e-26
-1.27783e-25
5.50117e-17
-3.01065e-26
-1.55036e-25
5.50117e-17
-1.5335e-26
-1.8584e-25
5.50117e-17
-6.23214e-27
-2.19683e-25
5.50117e-17
4.75677e-27
-2.54033e-25
5.50117e-17
2.05387e-26
-2.81145e-25
5.50117e-17
5.13278e-26
-2.91969e-25
5.50117e-17
8.85425e-26
-2.84531e-25
5.50117e-17
1.24615e-25
-2.69789e-25
5.50117e-17
1.41464e-25
-2.65151e-25
5.50117e-17
1.4061e-25
-2.74896e-25
5.50117e-17
1.28189e-25
-2.834e-25
5.50117e-17
1.15961e-25
-2.75298e-25
5.50117e-17
1.01003e-25
-2.41844e-25
5.50117e-17
8.09172e-26
-1.96176e-25
5.50117e-17
4.29475e-26
-1.59241e-25
5.50117e-17
-3.19656e-27
-1.3981e-25
5.50117e-17
-5.48712e-26
-1.34907e-25
5.50117e-17
-9.91515e-26
-1.37477e-25
5.50117e-17
-1.36839e-25
-1.37991e-25
5.50117e-17
-1.64211e-25
-1.31298e-25
5.50117e-17
-1.87995e-25
-1.24573e-25
5.50117e-17
-1.99963e-25
-1.18181e-25
5.50117e-17
-2.02108e-25
-1.16233e-25
5.50117e-17
-1.86143e-25
-1.13236e-25
5.50117e-17
-1.56111e-25
-1.08632e-25
5.50117e-17
-1.1082e-25
-9.42027e-26
5.50117e-17
-5.79295e-26
-6.55162e-26
5.50117e-17
-6.09406e-28
-1.1086e-26
5.50117e-17
5.7919e-26
7.26234e-26
5.50117e-17
1.21827e-25
2.08747e-25
5.50117e-17
1.83746e-25
4.00645e-25
5.50117e-17
2.36101e-25
6.46491e-25
5.50117e-17
2.42203e-25
9.01028e-25
5.50117e-17
2.03526e-25
1.1298e-24
5.50117e-17
1.3876e-25
1.34159e-24
5.50117e-17
8.41689e-26
1.59754e-24
5.50117e-17
-4.92522e-26
1.89268e-24
5.50117e-17
-3.20777e-25
2.17662e-24
5.50117e-17
-9.48133e-25
2.31337e-24
5.50117e-17
-1.81082e-24
2.33275e-24
5.50117e-17
-2.82007e-24
2.40638e-24
5.50117e-17
-3.74584e-24
2.80168e-24
5.50117e-17
-4.55982e-24
3.69124e-24
5.50117e-17
-5.13109e-24
5.29476e-24
5.50117e-17
-5.24759e-24
7.9405e-24
5.50117e-17
-4.62592e-24
1.20171e-23
5.50117e-17
-3.17564e-24
1.79127e-23
5.50117e-17
-2.27044e-25
3.2234e-23
2.34418e-24
4.22239e-23
6.04416e-17
1.77735e-24
-2.25939e-23
6.04416e-17
2.64931e-24
-2.5969e-23
6.04416e-17
2.48096e-24
-9.22094e-24
6.04416e-17
3.0261e-24
-8.04086e-24
6.04416e-17
2.94277e-24
-3.14265e-24
6.04416e-17
2.84895e-24
-1.28707e-24
6.04416e-17
2.60345e-24
-3.20372e-25
6.04416e-17
2.20434e-24
2.74827e-25
6.04416e-17
1.75013e-24
2.22015e-25
6.04416e-17
1.2586e-24
5.39464e-26
6.04416e-17
7.89984e-25
-1.36746e-25
6.04416e-17
3.95951e-25
-2.95709e-25
6.04416e-17
9.43213e-26
-3.64616e-25
6.04416e-17
-1.13493e-25
-3.6355e-25
6.04416e-17
-2.55289e-25
-3.20673e-25
6.04416e-17
-3.41613e-25
-2.55476e-25
6.04416e-17
-3.8446e-25
-1.81294e-25
6.04416e-17
-3.87193e-25
-9.8696e-26
6.04416e-17
-3.61614e-25
-1.37168e-26
6.04416e-17
-3.177e-25
7.46287e-26
6.04416e-17
-2.69223e-25
1.58019e-25
6.04416e-17
-2.22557e-25
2.30756e-25
6.04416e-17
-1.79706e-25
2.89811e-25
6.04416e-17
-1.39843e-25
3.33839e-25
6.04416e-17
-1.01717e-25
3.65346e-25
6.04416e-17
-6.52664e-26
3.87709e-25
6.04416e-17
-3.41619e-26
3.99872e-25
6.04416e-17
-9.88002e-27
3.97912e-25
6.04416e-17
8.27082e-27