/*--------------------------------*- C++ -*----------------------------------*\
| =========                 |                                                 |
| \\      /  F ield         | OpenFOAM: The Open Source CFD Toolbox           |
|  \\    /   O peration     | Version:  2412                                  |
|   \\  /    A nd           | Website:  www.openfoam.com                      |
|    \\/     M anipulation  |                                                 |
\*---------------------------------------------------------------------------*/
FoamFile
{
    version     2.0;
    format      ascii;
    arch        "LSB;label=32;scalar=64";
    class       surfaceScalarField;
    location    "150";
    object      phi;
}
// * * * * * * * * * * * * * * * * * * * * * * * * * * * * * * * * * * * * * //

dimensions      [0 3 -1 0 0 0 0];

oriented        oriented;

internalField   nonuniform List<scalar> 
9663
(
5.45268e-18
2.30345e-24
4.12819e-23
5.45269e-18
-8.27581e-25
-2.16315e-23
5.45268e-18
1.6233e-24
7.08185e-24
5.45269e-18
3.7832e-25
-5.82627e-24
5.45269e-18
5.05974e-25
-6.60846e-25
5.45269e-18
4.41953e-25
-5.77291e-26
5.45269e-18
2.6437e-25
-1.27392e-24
5.45269e-18
2.096e-25
-4.67471e-25
5.45269e-18
1.41965e-25
-3.89833e-25
5.45269e-18
9.90914e-26
-4.53131e-25
5.45269e-18
8.44916e-26
-3.33966e-25
5.45269e-18
7.01878e-26
-2.84486e-25
5.45269e-18
6.16467e-26
-2.48089e-25
5.45269e-18
5.37531e-26
-2.15838e-25
5.4527e-18
4.70416e-26
-1.83578e-25
5.4527e-18
4.14237e-26
-1.62783e-25
5.4527e-18
3.67828e-26
-1.43163e-25
5.4527e-18
3.33416e-26
-1.28053e-25
5.4527e-18
2.99894e-26
-1.19529e-25
5.4527e-18
2.75718e-26
-1.07925e-25
5.4527e-18
2.53232e-26
-1.01578e-25
5.4527e-18
2.30827e-26
-9.1432e-26
5.4527e-18
2.10841e-26
-8.75171e-26
5.4527e-18
1.95699e-26
-7.87922e-26
5.4527e-18
1.80733e-26
-7.46332e-26
5.4527e-18
1.72467e-26
-6.74624e-26
5.4527e-18
1.64028e-26
-6.36904e-26
5.4527e-18
1.61279e-26
-6.42644e-26
5.4527e-18
1.55052e-26
-6.09504e-26
5.4527e-18
1.48544e-26
-5.43871e-26
5.4527e-18
1.37415e-26
-4.82151e-26
5.4527e-18
1.34288e-26
-4.19226e-26
5.4527e-18
1.23278e-26
-4.2482e-26
5.4527e-18
1.19767e-26
-3.59285e-26
5.4527e-18
1.04261e-26
-3.5199e-26
5.4527e-18
1.03219e-26
-3.48743e-26
5.4527e-18
1.01544e-26
-3.94628e-26
5.4527e-18
1.08374e-26
-3.3213e-26
5.4527e-18
9.31942e-27
-3.05463e-26
5.4527e-18
9.12443e-27
-2.322e-26
5.4527e-18
7.59839e-27
-2.28515e-26
5.4527e-18
8.17246e-27
-2.66875e-26
5.4527e-18
7.72872e-27
-2.36878e-26
5.4527e-18
7.04272e-27
-1.48154e-26
5.4527e-18
5.38937e-27
-9.14776e-27
5.4527e-18
5.25586e-27
-1.71891e-27
5.4527e-18
3.82621e-27
-7.41782e-27
5.4527e-18
4.20482e-27
-1.10131e-28
5.4527e-18
2.12712e-27
-4.23711e-27
5.4527e-18
2.91982e-27
-4.53846e-27
5.4527e-18
2.64823e-27
-1.4887e-26
5.4527e-18
4.32149e-27
-6.3783e-27
5.4527e-18
2.76077e-27
-8.10748e-27
5.4527e-18
3.10884e-27
3.07997e-27
5.4527e-18
9.85602e-28
-2.68714e-27
5.4527e-18
2.01358e-27
-1.75757e-27
5.4527e-18
1.72979e-27
-1.45119e-26
5.4527e-18
3.53953e-27
-3.83742e-27
5.4527e-18
2.02492e-27
-7.68019e-27
5.4527e-18
2.75466e-27
4.27241e-27
5.4527e-18
1.64352e-28
-9.93658e-28
5.4527e-18
7.50138e-28
2.89226e-27
5.4527e-18
-6.48799e-28
-5.4399e-27
5.4527e-18
1.09856e-27
-2.08579e-27
5.4527e-18
9.81944e-29
-8.5183e-27
5.4527e-18
1.89313e-27
-4.44745e-27
5.4527e-18
7.90125e-28
-1.02638e-26
5.4527e-18
2.36313e-27
-6.84905e-27
5.4527e-18
1.23976e-27
-1.23671e-26
5.4527e-18
2.71013e-27
-9.21198e-27
5.4527e-18
1.56598e-27
-1.42485e-26
5.4527e-18
3.00409e-27
-1.06145e-26
5.4527e-18
2.21986e-27
-1.71319e-26
5.4527e-18
4.31799e-27
-1.72665e-26
5.4527e-18
4.44195e-27
-2.57697e-26
5.4527e-18
5.99111e-27
-1.57505e-26
5.4527e-18
3.92377e-27
-1.57875e-26
5.4527e-18
3.91576e-27
-5.01195e-27
5.4527e-18
1.55348e-27
-9.33625e-27
5.4527e-18
2.26748e-27
-9.3374e-27
5.4527e-18
2.31653e-27
-1.76545e-26
5.4527e-18
3.5728e-27
-8.23287e-27
5.4527e-18
1.81111e-27
-7.39296e-27
5.4527e-18
1.54761e-27
3.15114e-27
5.4527e-18
-7.51572e-28
-8.0663e-28
5.4527e-18
-4.41773e-28
-3.60057e-28
5.4527e-18
-3.50343e-28
-8.41713e-27
5.4527e-18
9.09769e-28
1.24511e-27
5.4527e-18
-6.94853e-28
1.07314e-27
5.4527e-18
-6.04663e-28
1.0973e-26
5.4527e-18
-2.86591e-27
7.72639e-27
5.4527e-18
-2.77015e-27
1.0275e-26
5.4527e-18
-3.71278e-27
3.42566e-27
5.4527e-18
-2.21424e-27
6.04705e-27
5.4527e-18
-2.71858e-27
3.20557e-27
5.4527e-18
-1.77013e-27
3.00101e-27
5.4527e-18
-2.02386e-27
6.65192e-27
5.4527e-18
-1.73985e-27
2.83601e-27
5.4527e-18
-9.28714e-28
-1.03659e-26
-6.31998e-29
-5.02363e-27
7.7234e-18
-1.60114e-24
6.14329e-23
7.72342e-18
1.3166e-24
-4.50541e-23
7.72342e-18
-6.63922e-25
1.75982e-23
7.72342e-18
3.16909e-25
-5.50068e-24
7.72343e-18
1.72338e-25
-6.93177e-25
7.72343e-18
8.65171e-26
7.17026e-25
7.72343e-18
1.11099e-25
-1.23872e-24
7.72343e-18
5.32325e-26
-2.59599e-25
7.72343e-18
3.6493e-26
-2.23647e-25
7.72343e-18
2.40138e-26
-3.77271e-25
7.72343e-18
2.34908e-26
-2.63008e-25
7.72343e-18
2.14812e-26
-2.13322e-25
7.72343e-18
2.1859e-26
-1.90704e-25
7.72343e-18
1.94611e-26
-1.63901e-25
7.72343e-18
1.89682e-26
-1.3999e-25
7.72343e-18
1.66307e-26
-1.21638e-25
7.72343e-18
1.54175e-26
-1.08855e-25
7.72343e-18
1.33841e-26
-9.37095e-26
7.72343e-18
1.21163e-26
-9.0193e-26
7.72343e-18
1.11283e-26
-7.92778e-26
7.72343e-18
9.82827e-27
-7.67864e-26
7.72343e-18
9.1445e-27
-6.71493e-26
7.72343e-18
8.10906e-27
-6.73157e-26
7.72343e-18
8.08115e-27
-5.91268e-26
7.72343e-18
7.38793e-27
-5.82974e-26
7.72344e-18
7.64191e-27
-5.03557e-26
7.72344e-18
6.68149e-27
-5.20367e-26
7.72344e-18
7.42529e-27
-4.7097e-26
7.72344e-18
6.75417e-27
-4.89346e-26
7.72344e-18
7.22559e-27
-4.02672e-26
7.72344e-18
6.57651e-27
-3.71569e-26
7.72344e-18
6.79578e-27
-3.17153e-26
7.72344e-18
6.27566e-27
-3.26099e-26
7.72344e-18
5.93714e-27
-2.63767e-26
7.72344e-18
4.73493e-27
-2.71752e-26
7.72344e-18
4.77542e-27
-2.59827e-26
7.72344e-18
5.09723e-27
-3.19769e-26
7.72344e-18
5.5503e-27
-2.55651e-26
7.72344e-18
4.70498e-27
-2.41495e-26
7.72344e-18
4.27637e-27
-1.52562e-26
7.72344e-18
2.57139e-27
-2.06282e-26
7.72344e-18
3.51826e-27
-1.43868e-26
7.72344e-18
2.71497e-27
-2.10405e-26
7.72344e-18
3.52728e-27
-8.20335e-27
7.72344e-18
2.56795e-27
-7.45145e-27
7.72344e-18
2.69588e-27
1.41623e-27
7.72344e-18
2.25913e-27
-5.01897e-27
7.72344e-18
1.64681e-27
2.98826e-27
7.72344e-18
3.69381e-28
-3.10112e-27
7.72344e-18
-3.09018e-29
-8.18721e-29
7.72344e-18
9.77756e-28
-1.29067e-26
7.72344e-18
1.6813e-27
-2.92901e-27
7.72344e-18
1.50174e-27
-5.98783e-27
7.72344e-18
8.73281e-28
5.68499e-27
7.72344e-18
-5.11174e-28
-3.16084e-27
7.72344e-18
-7.92637e-28
2.91521e-27
7.72344e-18
2.93916e-28
-1.36978e-26
7.72344e-18
1.30948e-27
-2.24135e-28
7.72344e-18
1.14469e-27
-6.49272e-27
7.72344e-18
9.99404e-28
7.23598e-27
7.72344e-18
-1.63475e-28
-4.44876e-27
7.72344e-18
-5.73845e-28
5.31666e-27
7.72344e-18
-8.7196e-28
-8.7502e-27
7.72344e-18
-6.80424e-28
1.30793e-27
7.72344e-18
-5.67252e-28
-1.05273e-26
7.72344e-18
-4.24817e-28
-6.10879e-28
7.72344e-18
-2.67427e-28
-1.20234e-26
7.72344e-18
-2.43349e-28
-2.72417e-27
7.72344e-18
-4.70628e-29
-1.36623e-26
7.72344e-18
-7.60931e-29
-5.15569e-27
7.72344e-18
2.8071e-29
-1.47383e-26
7.72344e-18
-6.23994e-29
-6.93392e-27
7.72344e-18
-2.06617e-28
-1.71846e-26
7.72344e-18
4.92905e-28
-1.17756e-26
7.72344e-18
1.48529e-27
-2.37279e-26
7.72344e-18
2.87698e-27
-1.20211e-26
7.72344e-18
2.19389e-27
-1.31977e-26
7.72344e-18
1.7642e-27
-1.83668e-27
7.72344e-18
-1.91509e-28
-9.93238e-27
7.72344e-18
8.94519e-29
-5.91309e-27
7.72344e-18
6.68872e-28
-1.7142e-26
7.72344e-18
2.00066e-27
-6.64487e-27
7.72344e-18
1.42619e-27
-5.602e-27
7.72344e-18
7.10395e-28
4.03317e-27
7.72344e-18
-1.13281e-27
-1.76748e-27
7.72344e-18
-1.09873e-27
1.47193e-27
7.72344e-18
-6.05261e-28
-8.80512e-27
7.72344e-18
7.34282e-28
1.83331e-27
7.72344e-18
6.83045e-28
6.19339e-28
7.72344e-18
2.22786e-28
1.04565e-26
7.72344e-18
-1.324e-27
5.09967e-27
7.72344e-18
-1.65311e-27
1.02778e-26
7.72344e-18
-2.3382e-27
5.43404e-28
7.72344e-18
-1.76889e-27
7.06464e-27
7.72344e-18
-2.18471e-27
-4.32967e-29
7.72344e-18
-2.15258e-27
3.08211e-27
7.72344e-18
-3.39218e-27
8.14943e-27
7.72344e-18
-1.91651e-27
-4.81382e-27
7.72344e-18
-2.65833e-27
-1.6864e-26
-9.71813e-28
4.36502e-28
5.45268e-18
4.02482e-23
5.45269e-18
-2.11689e-23
5.45268e-18
7.93788e-24
5.45269e-18
-5.20944e-24
5.45269e-18
-2.93564e-25
5.45269e-18
1.18105e-25
5.45269e-18
-1.1624e-24
5.45269e-18
-3.48743e-25
5.45269e-18
-3.4354e-25
5.45269e-18
-4.19243e-25
5.45269e-18
-2.99629e-25
5.45269e-18
-2.42756e-25
5.45269e-18
-2.103e-25
5.45269e-18
-1.79801e-25
5.4527e-18
-1.49364e-25
5.4527e-18
-1.34145e-25
5.4527e-18
-1.13096e-25
5.4527e-18
-1.05542e-25
5.4527e-18
-9.00337e-26
5.4527e-18
-8.7378e-26
5.4527e-18
-7.65372e-26
5.4527e-18
-7.56642e-26
5.4527e-18
-6.7425e-26
5.4527e-18
-6.55514e-26
5.4527e-18
-5.87432e-26
5.4527e-18
-5.67802e-26
5.4527e-18
-5.33869e-26
5.4527e-18
-5.30464e-26
5.4527e-18
-4.95352e-26
5.4527e-18
-4.46628e-26
5.4527e-18
-3.79039e-26
5.4527e-18
-3.55524e-26
5.4527e-18
-3.23815e-26
5.4527e-18
-3.02426e-26
5.4527e-18
-2.91863e-26
5.4527e-18
-3.31556e-26
5.4527e-18
-3.14608e-26
5.4527e-18
-2.98218e-26
5.4527e-18
-2.25895e-26
5.4527e-18
-2.17194e-26
5.4527e-18
-2.01908e-26
5.4527e-18
-2.38308e-26
5.4527e-18
-1.84215e-26
5.4527e-18
-1.36512e-26
5.4527e-18
-3.10411e-27
5.4527e-18
-3.56525e-27
5.4527e-18
-4.57496e-28
5.4527e-18
-9.47892e-28
5.4527e-18
-5.94725e-28
5.4527e-18
-1.05453e-26
5.4527e-18
-7.54016e-27
5.4527e-18
-9.5823e-27
5.4527e-18
5.1926e-28
5.4527e-18
-2.06949e-27
5.4527e-18
2.0413e-27
5.4527e-18
-1.15047e-26
5.4527e-18
-5.13837e-27
5.4527e-18
-8.79708e-27
5.4527e-18
3.32842e-27
5.4527e-18
-1.32014e-27
5.4527e-18
4.6204e-27
5.4527e-18
-3.70691e-27
5.4527e-18
-2.23794e-28
5.4527e-18
-7.224e-27
5.4527e-18
-3.25849e-27
5.4527e-18
-9.42734e-27
5.4527e-18
-5.36816e-27
5.4527e-18
-1.10661e-26
5.4527e-18
-7.66814e-27
5.4527e-18
-1.27538e-26
5.4527e-18
-9.08842e-27
5.4527e-18
-1.4625e-26
5.4527e-18
-1.25328e-26
5.4527e-18
-2.27532e-26
5.4527e-18
-1.69702e-26
5.4527e-18
-1.69851e-26
5.4527e-18
-6.24125e-27
5.4527e-18
-7.52244e-27
5.4527e-18
-5.54142e-27
5.4527e-18
-1.42468e-26
5.4527e-18
-1.10473e-26
5.4527e-18
-8.9512e-27
5.4527e-18
-2.77603e-28
5.4527e-18
5.19623e-28
5.4527e-18
1.54441e-27
5.4527e-18
-6.25316e-27
5.4527e-18
-3.03155e-27
5.4527e-18
-1.1755e-27
5.4527e-18
7.44619e-27
5.4527e-18
7.59932e-27
5.4527e-18
1.03858e-26
5.4527e-18
5.36921e-27
5.4527e-18
6.06189e-27
5.4527e-18
1.99727e-27
5.4527e-18
5.04459e-27
5.4527e-18
-1.61581e-27
5.4527e-18
6.65986e-27
5.4527e-18
-1.4056e-27
5.4527e-18
-1.30504e-26
-2.84248e-27
6.77808e-18
3.37616e-23
3.64882e-23
6.7781e-18
-1.85686e-23
-1.73876e-23
6.77809e-18
5.85859e-24
8.50396e-24
6.7781e-18
-4.43695e-24
-3.12072e-24
6.7781e-18
-2.79193e-25
7.96827e-25
6.7781e-18
1.70272e-25
8.65591e-25
6.7781e-18
-7.15248e-25
-2.31248e-25
6.7781e-18
-8.5189e-26
1.53774e-25
6.7781e-18
-1.10239e-25
1.27843e-25
6.7781e-18
-2.068e-25
-3.26834e-26
6.7781e-18
-1.44003e-25
4.00469e-26
6.7781e-18
-1.33607e-25
1.75844e-26
6.7781e-18
-1.22827e-25
2.51173e-26
6.7781e-18
-1.08567e-25
1.24862e-26
6.7781e-18
-9.27516e-26
2.00804e-26
6.7781e-18
-8.15052e-26
1.2733e-26
6.7781e-18
-7.03383e-26
9.3511e-27
6.77811e-18
-5.93705e-26
7.55355e-27
6.77811e-18
-5.35565e-26
-6.54826e-27
6.77811e-18
-4.33118e-26
-5.82214e-28
6.77811e-18
-3.88881e-26
-1.27729e-26
6.77811e-18
-3.31505e-26
-2.60344e-27
6.77811e-18
-3.30466e-26
-1.45912e-26
6.77811e-18
-2.94501e-26
-2.70524e-27
6.77811e-18
-2.87516e-26
-9.82597e-27
6.77811e-18
-2.5709e-26
2.04671e-27
6.77811e-18
-2.36776e-26
-7.41807e-27
6.77811e-18
-2.66193e-26
-4.73792e-28
6.77811e-18
-2.41788e-26
-9.37925e-27
6.77811e-18
-2.14446e-26
2.44566e-27
6.77811e-18
-1.79991e-26
-2.99213e-27
6.77811e-18
-1.40197e-26
5.81413e-27
6.77811e-18
-1.55571e-26
-4.80916e-27
6.77811e-18
-1.11309e-26
4.82567e-27
6.77811e-18
-1.21167e-26
-3.92365e-27
6.77811e-18
-1.34921e-26
4.91923e-27
6.77811e-18
-1.87007e-26
-5.51729e-27
6.77811e-18
-1.51291e-26
9.02627e-27
6.77811e-18
-1.51e-26
3.59591e-28
6.77811e-18
-9.78164e-27
1.32753e-26
6.77811e-18
-7.63251e-27
-3.6948e-27
6.77811e-18
-1.11229e-26
5.59844e-27
6.77811e-18
-6.89898e-27
-7.75242e-27
6.77811e-18
-3.40116e-27
1.15425e-26
6.77811e-18
-4.02305e-28
1.12441e-28
6.77811e-18
3.82635e-27
1.31642e-26
6.77811e-18
3.10436e-28
-5.83529e-27
6.77811e-18
6.48266e-27
8.06031e-27
6.77811e-18
3.88946e-27
-5.94631e-27
6.77811e-18
1.75675e-27
6.9116e-27
6.77811e-18
-7.55771e-27
-9.57369e-27
6.77811e-18
-2.75382e-27
1.21612e-26
6.77811e-18
-4.51279e-27
-3.64068e-27
6.77811e-18
4.3549e-27
1.43942e-26
6.77811e-18
2.13123e-27
-6.8735e-27
6.77811e-18
2.01753e-27
1.00127e-26
6.77811e-18
-7.63543e-27
-1.36586e-26
6.77811e-18
-7.42009e-28
1.29995e-26
6.77811e-18
-2.65575e-27
-7.74151e-27
6.77811e-18
6.62889e-27
1.42413e-26
6.77811e-18
4.70719e-27
-1.06443e-26
6.77811e-18
7.673e-27
7.89079e-27
6.77811e-18
2.84666e-27
-1.40419e-26
6.77811e-18
4.8826e-27
4.98909e-27
6.77811e-18
1.149e-27
-1.32475e-26
6.77811e-18
3.48585e-27
5.44626e-27
6.77811e-18
5.89186e-29
-1.2369e-26
6.77811e-18
1.83506e-27
5.73766e-27
6.77811e-18
-1.50495e-27
-1.20802e-26
6.77811e-18
1.9573e-29
5.42605e-27
6.77811e-18
-3.39579e-27
-1.0945e-26
6.77811e-18
-1.29043e-27
6.76552e-27
6.77811e-18
-5.76641e-27
-1.02754e-26
6.77811e-18
-7.33661e-27
8.22596e-27
6.77811e-18
-1.43631e-26
-1.12971e-26
6.77811e-18
-7.91151e-27
1.3426e-26
6.77811e-18
-8.54184e-27
-4.21504e-27
6.77811e-18
-3.44832e-28
1.36327e-26
6.77811e-18
-1.51335e-27
-8.17711e-27
6.77811e-18
-2.54579e-27
7.53684e-27
6.77811e-18
-9.01604e-27
-1.1298e-26
6.77811e-18
-3.87043e-27
1.03071e-26
6.77811e-18
-3.91699e-27
-3.81914e-27
6.77811e-18
3.81582e-27
1.01764e-26
6.77811e-18
2.66391e-27
-8.6099e-27
6.77811e-18
2.08344e-27
4.59456e-27
6.77811e-18
-3.7103e-27
-1.17972e-26
6.77811e-18
1.54461e-27
8.5919e-27
6.77811e-18
6.44974e-28
-5.81584e-27
6.77811e-18
8.82324e-27
8.20039e-27
6.77811e-18
8.95734e-27
-1.16227e-26
6.77811e-18
1.13848e-26
1.60434e-27
6.77811e-18
7.42925e-27
-1.6353e-26
6.77811e-18
8.83511e-27
3.59026e-28
6.77811e-18
7.07987e-27
-1.30653e-26
6.77811e-18
4.55396e-27
1.11627e-27
6.77811e-18
7.08579e-27
-6.45113e-27
6.77811e-18
1.2344e-27
6.62868e-27
6.77811e-18
-5.52845e-27
-1.16961e-26
-2.17342e-27
2.96141e-27
1.56758e-17
1.69327e-23
2.23013e-23
1.56759e-17
-2.33494e-23
-5.16066e-23
1.56759e-17
1.19969e-23
2.7047e-23
1.56759e-17
1.59653e-24
-4.47839e-24
1.56759e-17
8.50924e-25
2.02755e-24
1.56759e-17
1.57913e-24
4.09341e-24
1.56759e-17
6.70466e-25
8.41257e-25
1.56759e-17
6.76258e-25
1.40066e-24
1.56759e-17
4.86701e-25
1.2359e-24
1.56759e-17
3.05203e-25
7.67797e-25
1.56759e-17
2.51794e-25
6.93749e-25
1.56759e-17
2.1615e-25
6.08597e-25
1.56759e-17
1.82946e-25
5.17571e-25
1.56759e-17
1.62701e-25
4.45299e-25
1.56759e-17
1.41044e-25
3.8959e-25
1.56759e-17
1.28186e-25
3.39517e-25
1.56759e-17
1.12544e-25
2.94254e-25
1.56759e-17
1.06364e-25
2.60099e-25
1.56759e-17
9.51495e-26
2.24092e-25
1.56759e-17
9.05629e-26
2.01967e-25
1.56759e-17
8.22181e-26
1.72917e-25
1.56759e-17
7.68558e-26
1.61565e-25
1.56759e-17
6.77488e-26
1.42396e-25
1.56759e-17
6.34709e-26
1.3697e-25
1.56759e-17
5.61509e-26
1.2205e-25
1.56759e-17
5.49036e-26
1.19097e-25
1.56759e-17
4.71993e-26
1.05721e-25
1.56759e-17
5.18643e-26
1.08782e-25
1.56759e-17
4.55205e-26
1.00973e-25
1.56759e-17
4.63162e-26
1.00811e-25
1.56759e-17
4.12502e-26
8.7334e-26
1.56759e-17
3.9115e-26
8.14007e-26
1.56759e-17
3.70655e-26
7.28707e-26
1.56759e-17
3.56513e-26
7.27074e-26
1.56759e-17
3.13765e-26
6.55482e-26
1.56759e-17
3.1551e-26
6.94456e-26
1.56759e-17
2.98849e-26
6.9049e-26
1.56759e-17
2.98665e-26
7.44156e-26
1.56759e-17
2.62139e-26
6.57573e-26
1.56759e-17
2.63157e-26
6.33797e-26
1.56759e-17
1.84242e-26
4.7208e-26
1.56759e-17
2.95548e-26
5.51731e-26
1.56759e-17
1.87101e-26
4.23857e-26
1.56759e-17
2.11868e-26
4.35e-26
1.56759e-17
1.48039e-26
2.582e-26
1.56759e-17
1.30634e-26
2.39497e-26
1.56759e-17
1.3352e-26
1.22574e-26
1.56759e-17
1.10735e-26
1.58136e-26
1.56759e-17
8.2497e-27
5.6918e-27
1.56759e-17
9.72256e-27
1.67641e-26
1.56759e-17
9.12104e-27
1.89725e-26
1.56759e-17
9.90729e-27
3.12502e-26
1.56759e-17
9.93621e-27
1.98912e-26
1.56759e-17
5.73299e-27
2.06542e-26
1.56759e-17
3.90605e-27
3.94158e-27
1.56759e-17
7.06333e-27
1.63194e-26
1.56759e-17
7.07429e-27
1.51065e-26
1.56759e-17
8.21401e-27
2.77053e-26
1.56759e-17
8.95944e-27
1.09536e-26
1.56759e-17
5.79554e-27
1.36694e-26
1.56759e-17
6.91242e-28
-8.89538e-27
1.56759e-17
2.74533e-27
2.17845e-27
1.56759e-17
-3.83775e-28
-9.88488e-27
1.56759e-17
4.7192e-27
6.85868e-27
1.56759e-17
2.06028e-27
-3.41121e-27
1.56759e-17
6.95277e-27
1.19367e-26
1.56759e-17
3.07084e-27
9.7592e-28
1.56759e-17
8.38706e-27
1.5915e-26
1.56759e-17
3.88099e-27
5.51618e-27
1.56759e-17
9.15573e-27
2.01337e-26
1.56759e-17
4.89664e-27
1.08622e-26
1.56759e-17
8.97634e-27
2.37129e-26
1.56759e-17
6.227e-27
1.67461e-26
1.56759e-17
1.35766e-26
3.48806e-26
1.56759e-17
1.26963e-26
3.48199e-26
1.56759e-17
1.45238e-26
4.68706e-26
1.56759e-17
1.31713e-26
3.12418e-26
1.56759e-17
9.89068e-27
2.94715e-26
1.56759e-17
5.05069e-27
1.02828e-26
1.56759e-17
8.24915e-27
1.97837e-26
1.56759e-17
7.12887e-27
1.83393e-26
1.56759e-17
7.8241e-27
2.80834e-26
1.56759e-17
7.82154e-27
1.48698e-26
1.56759e-17
2.56933e-27
1.00411e-26
1.56759e-17
-2.96034e-29
-6.65726e-27
1.56759e-17
6.73019e-28
1.02373e-28
1.56759e-17
1.15172e-27
-2.47912e-28
1.56759e-17
7.75272e-28
6.8819e-27
1.56759e-17
5.40658e-28
-5.77625e-27
1.56759e-17
-2.79048e-27
-9.76242e-27
1.56759e-17
-5.75052e-27
-2.73428e-26
1.56759e-17
-5.76134e-27
-2.29382e-26
1.56759e-17
-7.08093e-27
-3.20157e-26
1.56759e-17
-4.46562e-27
-1.92569e-26
1.56759e-17
-7.13313e-27
-2.52745e-26
1.56759e-17
-4.95892e-27
-1.74822e-26
1.56759e-17
-3.74042e-27
-1.05501e-26
1.56759e-17
-1.74496e-26
-1.85262e-26
1.56759e-17
-1.23543e-26
-2.3791e-26
2.60482e-27
-5.63883e-27
1.83948e-17
-1.6544e-23
-1.1343e-23
1.8395e-17
2.60725e-23
-1.34581e-23
1.83949e-17
-8.52842e-24
3.07875e-23
1.83949e-17
1.3529e-24
-1.10531e-23
1.83949e-17
1.60455e-24
4.77982e-24
1.83949e-17
1.6808e-25
5.22662e-24
1.83949e-17
5.67468e-25
5.59722e-25
1.83949e-17
3.04998e-25
1.69399e-24
1.83949e-17
1.42891e-25
1.41245e-24
1.83949e-17
1.58161e-25
8.83848e-25
1.83949e-17
1.24781e-25
7.90512e-25
1.83949e-17
1.14644e-25
7.10126e-25
1.83949e-17
1.14362e-25
5.98735e-25
1.83949e-17
1.021e-25
5.09973e-25
1.83949e-17
9.62825e-26
4.52147e-25
1.83949e-17
8.09408e-26
3.82074e-25
1.83949e-17
7.87156e-26
3.46239e-25
1.83949e-17
6.1522e-26
2.87329e-25
1.83949e-17
6.57979e-26
2.72002e-25
1.83949e-17
5.16079e-26
2.22826e-25
1.83949e-17
5.34734e-26
2.14211e-25
1.83949e-17
4.04687e-26
1.78981e-25
1.83949e-17
4.422e-26
1.78065e-25
1.83949e-17
3.59426e-26
1.53823e-25
1.83949e-17
3.8584e-26
1.52177e-25
1.83949e-17
3.16476e-26
1.32523e-25
1.83949e-17
3.4665e-26
1.35527e-25
1.83949e-17
2.97992e-26
1.23448e-25
1.83949e-17
3.37571e-26
1.25659e-25
1.83949e-17
2.90334e-26
1.10754e-25
1.83949e-17
3.0358e-26
1.07095e-25
1.83949e-17
2.68805e-26
9.12351e-26
1.83949e-17
2.85376e-26
9.26583e-26
1.83949e-17
2.27156e-26
7.99539e-26
1.83949e-17
2.13472e-26
8.26159e-26
1.83949e-17
1.59315e-26
7.40275e-26
1.83949e-17
2.50625e-26
8.80112e-26
1.83949e-17
2.07095e-26
7.83948e-26
1.83949e-17
2.36463e-26
8.37298e-26
1.83949e-17
1.35633e-26
6.20878e-26
1.83949e-17
1.70631e-26
6.70692e-26
1.83949e-17
7.32528e-27
4.91464e-26
1.83949e-17
1.87222e-26
6.13821e-26
1.83949e-17
1.05012e-26
4.01379e-26
1.83949e-17
1.81801e-26
4.44956e-26
1.83949e-17
7.01937e-27
1.62389e-26
1.83949e-17
1.49845e-26
2.83047e-26
1.83949e-17
4.12101e-27
8.18439e-27
1.83949e-17
7.15443e-27
2.09375e-26
1.83949e-17
-6.45695e-27
5.00297e-27
1.83949e-17
1.19349e-26
3.64772e-26
1.83949e-17
2.19058e-27
1.82546e-26
1.83949e-17
1.51643e-26
3.94e-26
1.83949e-17
-1.7748e-27
6.40877e-27
1.83949e-17
7.43469e-27
2.51908e-26
1.83949e-17
-1.26532e-26
-1.5799e-27
1.83949e-17
1.35095e-26
3.74077e-26
1.83949e-17
-9.39107e-28
1.03448e-26
1.83949e-17
1.68216e-26
3.52321e-26
1.83949e-17
-3.37396e-27
-4.35883e-27
1.83949e-17
1.13419e-26
1.77105e-26
1.83949e-17
-9.37976e-27
-1.50742e-26
1.83949e-17
7.9409e-27
1.50261e-26
1.83949e-17
-8.61398e-27
-9.97636e-27
1.83949e-17
8.06604e-27
1.95803e-26
1.83949e-17
-7.13204e-27
-4.62837e-27
1.83949e-17
8.85999e-27
2.47155e-26
1.83949e-17
-5.89453e-27
3.51763e-28
1.83949e-17
9.01038e-27
2.87324e-26
1.83949e-17
-4.25578e-27
5.69554e-27
1.83949e-17
9.10085e-27
3.26729e-26
1.83949e-17
-3.71203e-27
1.0972e-26
1.83949e-17
8.57685e-27
3.81632e-26
1.83949e-17
-4.1723e-27
2.08643e-26
1.83949e-17
1.66117e-26
5.48967e-26
1.83949e-17
8.48804e-27
3.43597e-26
1.83949e-17
1.86671e-26
4.89979e-26
1.83949e-17
3.22807e-27
1.78819e-26
1.83949e-17
9.07441e-27
2.88108e-26
1.83949e-17
-4.4182e-27
9.93195e-27
1.83949e-17
1.22506e-26
3.40689e-26
1.83949e-17
6.37845e-27
2.04452e-26
1.83949e-17
1.23477e-26
2.67339e-26
1.83949e-17
-4.99736e-29
2.31479e-27
1.83949e-17
1.97147e-27
4.42816e-27
1.83949e-17
-1.03207e-26
-1.03743e-26
1.83949e-17
5.77968e-27
1.13807e-26
1.83949e-17
-3.20504e-28
-1.14193e-27
1.83949e-17
8.52165e-27
6.28467e-27
1.83949e-17
-3.9446e-27
-2.04852e-26
1.83949e-17
-3.95314e-28
-1.46991e-26
1.83949e-17
-1.313e-26
-3.66397e-26
1.83949e-17
-3.51258e-27
-1.9289e-26
1.83949e-17
-1.37059e-26
-3.46958e-26
1.83949e-17
-2.78319e-27
-1.06343e-26
1.83949e-17
-1.31347e-26
-3.00023e-26
1.83949e-17
-9.71639e-27
1.92303e-27
1.83949e-17
-8.99561e-28
-8.00438e-27
1.83949e-17
1.29065e-27
-1.35723e-26
-5.18979e-27
-2.08296e-26
1.56758e-17
-3.2222e-23
2.3092e-23
1.56759e-17
2.02305e-23
-4.77553e-23
1.56759e-17
-4.97561e-24
2.37769e-23
1.56759e-17
5.23773e-24
-6.67884e-24
1.56759e-17
1.13414e-24
1.49945e-24
1.56759e-17
4.99851e-25
3.41043e-24
1.56759e-17
1.24369e-24
6.06337e-27
1.56759e-17
4.3865e-25
9.05742e-25
1.56759e-17
3.83135e-25
7.95295e-25
1.56759e-17
3.78067e-25
4.34138e-25
1.56759e-17
2.83641e-25
3.99926e-25
1.56759e-17
2.39426e-25
3.75208e-25
1.56759e-17
2.24879e-25
2.99213e-25
1.56759e-17
1.97511e-25
2.73451e-25
1.56759e-17
1.7248e-25
2.33332e-25
1.56759e-17
1.55714e-25
2.13719e-25
1.56759e-17
1.32687e-25
1.8002e-25
1.56759e-17
1.23429e-25
1.63976e-25
1.56759e-17
1.01574e-25
1.36935e-25
1.56759e-17
9.73951e-26
1.19936e-25
1.56759e-17
7.93025e-26
1.05294e-25
1.56759e-17
7.99734e-26
9.35005e-26
1.56759e-17
6.73566e-26
8.61736e-26
1.56759e-17
6.91454e-26
7.86033e-26
1.56759e-17
5.94401e-26
7.5071e-26
1.56759e-17
6.12316e-26
6.92514e-26
1.56759e-17
5.49329e-26
7.06006e-26
1.56759e-17
5.85564e-26
6.2289e-26
1.56759e-17
5.32324e-26
6.34376e-26
1.56759e-17
5.24795e-26
5.75574e-26
1.56759e-17
4.42561e-26
5.63718e-26
1.56759e-17
4.49893e-26
5.05655e-26
1.56759e-17
3.896e-26
4.87711e-26
1.56759e-17
3.85277e-26
4.40307e-26
1.56759e-17
3.28192e-26
4.42573e-26
1.56759e-17
3.98461e-26
4.41698e-26
1.56759e-17
3.67818e-26
4.40988e-26
1.56759e-17
4.02317e-26
4.4998e-26
1.56759e-17
2.96344e-26
4.26342e-26
1.56759e-17
3.13298e-26
3.67255e-26
1.56759e-17
2.1708e-26
3.78849e-26
1.56759e-17
2.99723e-26
2.85177e-26
1.56759e-17
1.98792e-26
2.94159e-26
1.56759e-17
2.33265e-26
2.18888e-26
1.56759e-17
8.87513e-27
2.10492e-26
1.56759e-17
1.49136e-26
1.82939e-26
1.56759e-17
4.22014e-27
1.34908e-26
1.56759e-17
7.9543e-27
9.97856e-27
1.56759e-17
-1.28413e-27
6.42622e-27
1.56759e-17
1.38848e-26
1.54491e-26
1.56759e-17
7.51266e-27
1.27806e-26
1.56759e-17
1.95629e-26
2.01771e-26
1.56759e-17
2.39216e-27
1.39053e-26
1.56759e-17
1.04149e-26
1.3413e-26
1.56759e-17
-6.34e-27
7.6163e-27
1.56759e-17
1.46684e-26
1.44525e-26
1.56759e-17
2.30975e-27
8.50895e-27
1.56759e-17
1.91571e-26
1.60273e-26
1.56759e-17
-2.40314e-27
9.34689e-27
1.56759e-17
1.04653e-26
8.04114e-27
1.56759e-17
-8.86683e-27
2.06842e-27
1.56759e-17
6.46366e-27
1.01074e-27
1.56759e-17
-6.91874e-27
-2.15885e-27
1.56759e-17
8.05762e-27
2.80644e-27
1.56759e-17
-3.70248e-27
1.45263e-28
1.56759e-17
1.03684e-26
5.95862e-27
1.56759e-17
-1.22231e-27
3.75271e-27
1.56759e-17
1.20128e-26
8.41623e-27
1.56759e-17
1.37133e-27
6.91146e-27
1.56759e-17
1.35337e-26
1.0414e-26
1.56759e-17
3.22311e-27
8.33426e-27
1.56759e-17
1.50771e-26
1.27744e-26
1.56759e-17
5.91194e-27
1.39315e-26
1.56759e-17
2.52737e-26
2.1352e-26
1.56759e-17
1.61946e-26
2.25711e-26
1.56759e-17
2.80993e-26
2.3882e-26
1.56759e-17
1.02085e-26
2.12687e-26
1.56759e-17
1.65296e-26
1.5537e-26
1.56759e-17
1.84336e-27
1.4259e-26
1.56759e-17
1.67541e-26
1.16172e-26
1.56759e-17
9.44962e-27
1.28751e-26
1.56759e-17
1.75566e-26
1.21647e-26
1.56759e-17
2.87571e-27
9.54068e-27
1.56759e-17
5.32211e-27
3.9754e-27
1.56759e-17
-7.37161e-27
2.14118e-27
1.56759e-17
5.79043e-27
2.87545e-28
1.56759e-17
-1.06882e-27
-6.87757e-31
1.56759e-17
7.68615e-27
1.26561e-27
1.56759e-17
-6.65749e-27
-1.66193e-27
1.56759e-17
-2.6466e-27
-6.72293e-27
1.56759e-17
-1.67549e-26
-1.13632e-26
1.56759e-17
-8.38368e-27
-1.51001e-26
1.56759e-17
-1.7841e-26
-1.64455e-26
1.56759e-17
-6.95511e-27
-1.50734e-26
1.56759e-17
-1.64091e-26
-1.16428e-26
1.56759e-17
-3.88926e-27
-1.44328e-26
1.56759e-17
-1.67721e-26
-7.81151e-29
1.56759e-17
-2.43454e-27
-2.55579e-26
1.56759e-17
1.81461e-27
-9.57372e-27
-7.61576e-28
-5.09088e-27
6.77808e-18
3.53677e-23
6.7781e-18
-1.82842e-23
6.77809e-18
7.39371e-24
6.7781e-18
-4.27644e-24
6.7781e-18
3.31896e-25
6.7781e-18
9.63231e-26
6.7781e-18
-7.53379e-25
6.7781e-18
-2.48037e-25
6.7781e-18
-1.78964e-25
6.7781e-18
-3.25796e-25
6.7781e-18
-1.79722e-25
6.7781e-18
-1.85559e-25
6.7781e-18
-1.33138e-25
6.7781e-18
-1.30755e-25
6.7781e-18
-9.59596e-26
6.7781e-18
-8.93124e-26
6.7781e-18
-7.88828e-26
6.77811e-18
-6.6142e-26
6.77811e-18
-7.26921e-26
6.77811e-18
-5.30759e-26
6.77811e-18
-6.63661e-26
6.77811e-18
-4.44962e-26
6.77811e-18
-5.97872e-26
6.77811e-18
-3.7801e-26
6.77811e-18
-5.07964e-26
6.77811e-18
-2.99502e-26
6.77811e-18
-4.70721e-26
6.77811e-18
-2.8653e-26
6.77811e-18
-4.33829e-26
6.77811e-18
-2.20692e-26
6.77811e-18
-3.22637e-26
6.77811e-18
-1.44992e-26
6.77811e-18
-2.89752e-26
6.77811e-18
-1.06854e-26
6.77811e-18
-2.82542e-26
6.77811e-18
-1.2649e-26
6.77811e-18
-3.04665e-26
6.77811e-18
-8.13966e-27
6.77811e-18
-2.48252e-26
6.77811e-18
-6.86466e-28
6.77811e-18
-2.80866e-26
6.77811e-18
-1.69826e-27
6.77811e-18
-2.61808e-26
6.77811e-18
8.23614e-27
6.77811e-18
-1.30115e-26
6.77811e-18
1.50568e-26
6.77811e-18
-1.24358e-26
6.77811e-18
1.48729e-26
6.77811e-18
-1.46952e-26
6.77811e-18
8.37731e-27
6.77811e-18
-2.13819e-26
6.77811e-18
1.34218e-26
6.77811e-18
-1.58495e-26
6.77811e-18
2.03059e-26
6.77811e-18
-1.98923e-26
6.77811e-18
1.36009e-26
6.77811e-18
-2.66754e-26
6.77811e-18
1.89147e-26
6.77811e-18
-1.94926e-26
6.77811e-18
2.55993e-26
6.77811e-18
-1.96982e-26
6.77811e-18
2.02492e-26
6.77811e-18
-2.16401e-26
6.77811e-18
1.47734e-26
6.77811e-18
-2.26145e-26
6.77811e-18
1.20902e-26
6.77811e-18
-2.34704e-26
6.77811e-18
1.08336e-26
6.77811e-18
-2.39947e-26
6.77811e-18
9.11837e-27
6.77811e-18
-2.40453e-26
6.77811e-18
8.2229e-27
6.77811e-18
-2.77423e-26
6.77811e-18
4.02488e-27
6.77811e-18
-3.05444e-26
6.77811e-18
1.02445e-26
6.77811e-18
-2.07787e-26
6.77811e-18
1.60299e-26
6.77811e-18
-2.30123e-26
6.77811e-18
8.80382e-27
6.77811e-18
-2.44949e-26
6.77811e-18
1.20709e-26
6.77811e-18
-1.36871e-26
6.77811e-18
1.75637e-26
6.77811e-18
-1.61627e-26
6.77811e-18
1.14136e-26
6.77811e-18
-1.85279e-26
6.77811e-18
1.67513e-26
6.77811e-18
-8.91878e-27
6.77811e-18
2.30457e-26
6.77811e-18
-1.07233e-26
6.77811e-18
1.95873e-26
6.77811e-18
-1.4227e-26
6.77811e-18
1.64358e-26
6.77811e-18
-1.36792e-26
6.77811e-18
1.32529e-26
6.77811e-18
-1.03355e-26
6.77811e-18
1.44607e-26
6.77811e-18
-1.78617e-26
6.99393e-27
5.45268e-18
4.11789e-23
2.80702e-24
5.45269e-18
-2.30439e-23
-7.06641e-25
5.45268e-18
6.63555e-24
2.00892e-24
5.45269e-18
-6.51937e-24
3.96481e-25
5.45269e-18
-1.07161e-24
4.94833e-25
5.45269e-18
-3.89465e-25
4.66333e-25
5.45269e-18
-1.43351e-24
3.06954e-25
5.45269e-18
-6.02968e-25
2.42999e-25
5.45269e-18
-4.35229e-25
1.88689e-25
5.45269e-18
-5.11937e-25
1.34074e-25
5.45269e-18
-3.6592e-25
1.18391e-25
5.45269e-18
-3.28819e-25
9.34384e-26
5.45269e-18
-2.80837e-25
8.61741e-26
5.45269e-18
-2.53095e-25
6.94601e-26
5.4527e-18
-2.11029e-25
6.49168e-26
5.4527e-18
-1.88667e-25
5.23422e-26
5.4527e-18
-1.64034e-25
5.01381e-26
5.4527e-18
-1.42579e-25
3.97439e-26
5.4527e-18
-1.32405e-25
3.90004e-26
5.4527e-18
-1.12043e-25
3.06415e-26
5.4527e-18
-1.08192e-25
3.1105e-26
5.4527e-18
-9.13575e-26
2.54248e-26
5.4527e-18
-9.38746e-26
2.5925e-26
5.4527e-18
-7.97081e-26
2.19629e-26
5.4527e-18
-8.08807e-26
2.22133e-26
5.4527e-18
-6.78079e-26
1.98451e-26
5.4527e-18
-7.28945e-26
2.01469e-26
5.4527e-18
-6.53186e-26
1.92161e-26
5.4527e-18
-7.03958e-26
1.86499e-26
5.4527e-18
-5.63037e-26
1.74601e-26
5.4527e-18
-5.52325e-26
1.55095e-26
5.4527e-18
-4.40881e-26
1.4874e-26
5.4527e-18
-4.95366e-26
1.31743e-26
5.4527e-18
-3.79653e-26
1.36218e-26
5.4527e-18
-4.30255e-26
1.15377e-26
5.4527e-18
-3.70945e-26
1.29148e-26
5.4527e-18
-4.85745e-26
1.20278e-26
5.4527e-18
-3.63821e-26
1.37649e-26
5.4527e-18
-3.97016e-26
1.11354e-26
5.4527e-18
-2.37369e-26
1.10758e-26
5.4527e-18
-3.3963e-26
8.80173e-27
5.4527e-18
-2.41504e-26
1.03753e-26
5.4527e-18
-3.3761e-26
8.93502e-27
5.4527e-18
-1.18904e-26
8.94318e-27
5.4527e-18
-1.60518e-26
4.99066e-27
5.4527e-18
1.04651e-27
4.99004e-27
5.4527e-18
-1.26959e-26
2.07859e-27
5.4527e-18
3.27906e-27
4.12394e-27
5.4527e-18
-8.43823e-27
1.5752e-27
5.4527e-18
-2.34545e-28
4.29689e-27
5.4527e-18
-2.10148e-26
3.93077e-27
5.4527e-18
-2.97747e-27
6.24417e-27
5.4527e-18
-1.49015e-26
3.97203e-27
5.4527e-18
6.60544e-27
3.71499e-27
5.4527e-18
-1.04441e-26
1.5998e-27
5.4527e-18
3.91376e-27
2.95148e-27
5.4527e-18
-2.25452e-26
3.91563e-27
5.4527e-18
1.83947e-27
4.75513e-27
5.4527e-18
-1.46207e-26
3.20804e-27
5.4527e-18
1.11642e-26
2.56526e-27
5.4527e-18
-8.13755e-27
3.68443e-28
5.4527e-18
1.11048e-26
1.4478e-27
5.4527e-18
-1.00034e-26
-1.40914e-28
5.4527e-18
5.81949e-27
2.32893e-27
5.4527e-18
-1.28154e-26
6.9113e-28
5.4527e-18
2.59384e-27
3.15728e-27
5.4527e-18
-1.52066e-26
1.05218e-27
5.4527e-18
-2.477e-28
3.75441e-27
5.4527e-18
-1.76605e-26
1.42001e-27
5.4527e-18
-3.49475e-27
4.37194e-27
5.4527e-18
-1.96384e-26