/*--------------------------------*- C++ -*----------------------------------*\
| =========                 |                                                 |
| \\      /  F ield         | OpenFOAM: The Open Source CFD Toolbox           |
|  \\    /   O peration     | Version:  2412                                  |
|   \\  /    A nd           | Website:  www.openfoam.com                      |
|    \\/     M anipulation  |                                                 |
\*---------------------------------------------------------------------------*/
FoamFile
{
    version     2.0;
    format      ascii;
    arch        "LSB;label=32;scalar=64";
    class       volVectorField;
    location    "150";
    object      U;
}
// * * * * * * * * * * * * * * * * * * * * * * * * * * * * * * * * * * * * * //

dimensions      [0 1 -1 0 0 0 0];

internalField   nonuniform List<vector> 
3700
(
(5.67752e-06 2.856e-12 2.12634e-11)
(5.67751e-06 -1.31998e-12 -1.20059e-11)
(5.67752e-06 1.66494e-12 4.16292e-12)
(5.67752e-06 3.23474e-13 -2.97841e-12)
(5.67752e-06 5.1586e-13 -3.48281e-13)
(5.67752e-06 4.38206e-13 -8.74122e-14)
(5.67752e-06 2.54562e-13 -6.65697e-13)
(5.67752e-06 2.37395e-13 -2.5498e-13)
(5.67752e-06 1.64558e-13 -2.2068e-13)
(5.67752e-06 1.18427e-13 -2.41848e-13)
(5.67752e-06 1.02412e-13 -1.78473e-13)
(5.67752e-06 8.34203e-14 -1.51449e-13)
(5.67752e-06 7.14823e-14 -1.30801e-13)
(5.67752e-06 6.15379e-14 -1.1352e-13)
(5.67753e-06 5.33576e-14 -9.69253e-14)
(5.67753e-06 4.6659e-14 -8.54662e-14)
(5.67753e-06 4.11546e-14 -7.53198e-14)
(5.67753e-06 3.68878e-14 -6.71797e-14)
(5.67753e-06 3.27228e-14 -6.27381e-14)
(5.67753e-06 3.02689e-14 -5.62807e-14)
(5.67753e-06 2.77344e-14 -5.27446e-14)
(5.67753e-06 2.57561e-14 -4.70769e-14)
(5.67753e-06 2.34187e-14 -4.49121e-14)
(5.67753e-06 2.20164e-14 -4.00349e-14)
(5.67753e-06 2.02954e-14 -3.78717e-14)
(5.67753e-06 1.94792e-14 -3.37598e-14)
(5.67753e-06 1.8363e-14 -3.22916e-14)
(5.67753e-06 1.78829e-14 -3.15676e-14)
(5.67753e-06 1.71775e-14 -3.02379e-14)
(5.67753e-06 1.64776e-14 -2.66409e-14)
(5.67753e-06 1.52167e-14 -2.39858e-14)
(5.67753e-06 1.46316e-14 -2.05976e-14)
(5.67753e-06 1.34297e-14 -2.08032e-14)
(5.67753e-06 1.31373e-14 -1.75042e-14)
(5.67753e-06 1.17834e-14 -1.74746e-14)
(5.67753e-06 1.18001e-14 -1.6864e-14)
(5.67753e-06 1.15462e-14 -1.89576e-14)
(5.67753e-06 1.19631e-14 -1.57391e-14)
(5.67753e-06 1.04331e-14 -1.49359e-14)
(5.67753e-06 1.01033e-14 -1.12777e-14)
(5.67753e-06 8.85026e-15 -1.14628e-14)
(5.67753e-06 9.35179e-15 -1.18001e-14)
(5.67753e-06 8.86931e-15 -1.07614e-14)
(5.67753e-06 8.07517e-15 -6.40788e-15)
(5.67753e-06 6.20448e-15 -4.51603e-15)
(5.67753e-06 5.27294e-15 -7.00294e-16)
(5.67753e-06 4.13884e-15 -3.62095e-15)
(5.67753e-06 4.17493e-15 1.81813e-16)
(5.67753e-06 3.02812e-15 -2.23251e-15)
(5.67753e-06 3.83475e-15 -1.71196e-15)
(5.67753e-06 3.89642e-15 -6.33441e-15)
(5.67753e-06 4.86062e-15 -1.96673e-15)
(5.67753e-06 3.51537e-15 -3.69614e-15)
(5.67753e-06 3.11492e-15 1.53404e-15)
(5.67753e-06 1.87132e-15 -1.95355e-15)
(5.67753e-06 2.82869e-15 -6.43432e-16)
(5.67753e-06 2.92101e-15 -6.40519e-15)
(5.67753e-06 3.95154e-15 -8.2843e-16)
(5.67753e-06 2.71985e-15 -3.70899e-15)
(5.67753e-06 2.59518e-15 2.344e-15)
(5.67753e-06 6.90008e-16 -1.07275e-15)
(5.67753e-06 1.08329e-15 1.62984e-15)
(5.67753e-06 5.40265e-16 -2.86226e-15)
(5.67753e-06 1.81402e-15 -4.74314e-16)
(5.67753e-06 1.49994e-15 -4.21738e-15)
(5.67753e-06 2.72434e-15 -1.58273e-15)
(5.67753e-06 2.12317e-15 -5.12649e-15)
(5.67753e-06 3.26815e-15 -2.847e-15)
(5.67753e-06 2.56012e-15 -6.17474e-15)
(5.67753e-06 3.69813e-15 -4.08441e-15)
(5.67753e-06 2.93264e-15 -7.17229e-15)
(5.67753e-06 4.06473e-15 -5.01256e-15)
(5.67753e-06 3.81138e-15 -8.65029e-15)
(5.67753e-06 5.86152e-15 -7.75217e-15)
(5.67753e-06 6.01213e-15 -1.17002e-14)
(5.67753e-06 6.88812e-15 -6.71224e-15)
(5.67753e-06 4.76988e-15 -7.81913e-15)
(5.67753e-06 3.98953e-15 -2.86924e-15)
(5.67753e-06 2.25686e-15 -5.62429e-15)
(5.67753e-06 3.17878e-15 -4.55957e-15)
(5.67753e-06 3.43786e-15 -8.03104e-15)
(5.67753e-06 4.06689e-15 -3.21759e-15)
(5.67753e-06 2.21916e-15 -3.75698e-15)
(5.67753e-06 1.05335e-15 8.58376e-16)
(5.67753e-06 -5.85337e-16 -1.50953e-15)
(5.67753e-06 -8.22701e-17 -3.53803e-16)
(5.67753e-06 4.48516e-16 -3.65891e-15)
(5.67753e-06 9.37504e-16 1.31032e-15)
(5.67753e-06 -7.64571e-16 5.08431e-16)
(5.67753e-06 -1.44365e-15 4.9953e-15)
(5.67753e-06 -3.1527e-15 2.94452e-15)
(5.67753e-06 -3.04575e-15 4.68956e-15)
(5.67753e-06 -3.3293e-15 1.36511e-15)
(5.67753e-06 -2.1607e-15 3.45306e-15)
(5.67753e-06 -2.01843e-15 1.84175e-15)
(5.67753e-06 -1.38794e-15 2.37368e-15)
(5.67753e-06 -7.27384e-16 4.44671e-15)
(5.67753e-06 -4.07542e-18 3.7455e-15)
(5.67753e-06 2.2437e-15 -8.76767e-16)
(5.67753e-06 1.53257e-15 1.04574e-15)
(8.04188e-06 4.10988e-13 3.05637e-11)
(8.04187e-06 3.43979e-13 -2.13945e-11)
(8.04188e-06 6.23226e-13 8.8152e-12)
(8.04188e-06 4.63644e-13 -3.12627e-12)
(8.04188e-06 4.39855e-13 -1.67934e-13)
(8.04189e-06 3.35364e-13 3.08499e-13)
(8.04189e-06 2.46694e-13 -7.04844e-13)
(8.04189e-06 1.69434e-13 -1.55366e-13)
(8.04189e-06 1.13567e-13 -1.49105e-13)
(8.04189e-06 7.83838e-14 -2.21304e-13)
(8.04189e-06 6.89245e-14 -1.54403e-13)
(8.04189e-06 5.90488e-14 -1.25597e-13)
(8.04189e-06 5.33307e-14 -1.10616e-13)
(8.04189e-06 4.71883e-14 -9.51224e-14)
(8.04189e-06 4.24742e-14 -8.08182e-14)
(8.04189e-06 3.74416e-14 -7.09161e-14)
(8.04189e-06 3.37933e-14 -6.22213e-14)
(8.04189e-06 3.01051e-14 -5.54109e-14)
(8.04189e-06 2.75243e-14 -5.15387e-14)
(8.04189e-06 2.49285e-14 -4.68758e-14)
(8.04189e-06 2.30068e-14 -4.33255e-14)
(8.04189e-06 2.06813e-14 -3.92498e-14)
(8.04189e-06 1.90907e-14 -3.7429e-14)
(8.04189e-06 1.77334e-14 -3.36469e-14)
(8.04189e-06 1.66147e-14 -3.17137e-14)
(8.04189e-06 1.59586e-14 -2.7915e-14)
(8.04189e-06 1.50511e-14 -2.76267e-14)
(8.04189e-06 1.51752e-14 -2.52418e-14)
(8.04189e-06 1.44653e-14 -2.54787e-14)
(8.04189e-06 1.41402e-14 -2.1485e-14)
(8.04189e-06 1.31822e-14 -1.93439e-14)
(8.04189e-06 1.28934e-14 -1.67559e-14)
(8.04189e-06 1.20986e-14 -1.64113e-14)
(8.04189e-06 1.13611e-14 -1.38249e-14)
(8.04189e-06 9.85087e-15 -1.38497e-14)
(8.04189e-06 9.58562e-15 -1.35424e-14)
(8.04189e-06 9.91331e-15 -1.54249e-14)
(8.0419e-06 1.03234e-14 -1.29214e-14)
(8.0419e-06 9.14269e-15 -1.14242e-14)
(8.0419e-06 8.3648e-15 -8.20663e-15)
(8.0419e-06 6.6875e-15 -9.52334e-15)
(8.0419e-06 7.32879e-15 -7.08509e-15)
(8.0419e-06 6.76477e-15 -8.49668e-15)
(8.0419e-06 6.50817e-15 -3.78144e-15)
(8.0419e-06 5.14069e-15 -2.37185e-15)
(8.0419e-06 4.8565e-15 1.7526e-16)
(8.0419e-06 3.98032e-15 -1.32277e-15)
(8.0419e-06 3.50088e-15 1.2e-15)
(8.0419e-06 1.68519e-15 -3.20906e-16)
(8.0419e-06 1.63887e-15 -5.59844e-16)
(8.0419e-06 2.43712e-15 -4.09574e-15)
(8.0419e-06 3.51923e-15 -1.22636e-15)
(8.0419e-06 2.82647e-15 -9.91916e-16)
(8.0419e-06 2.26368e-15 1.71083e-15)
(8.0419e-06 5.22604e-16 -5.07604e-16)
(8.0419e-06 5.32e-16 -2.32527e-16)
(8.0419e-06 1.53728e-15 -4.40708e-15)
(8.0419e-06 2.7836e-15 -6.07668e-16)
(8.0419e-06 2.22493e-15 -1.14437e-15)
(8.0419e-06 2.04098e-15 2.04432e-15)
(8.0419e-06 2.11163e-16 -5.26485e-16)
(8.0419e-06 -1.57649e-16 1.04315e-15)
(8.0419e-06 -8.58632e-16 -2.69909e-15)
(8.0419e-06 -2.53102e-17 -6.29824e-16)
(8.0419e-06 -1.97269e-16 -3.5759e-15)
(8.0419e-06 6.38658e-16 -1.55412e-15)
(8.0419e-06 5.20537e-16 -4.46739e-15)
(8.0419e-06 1.07272e-15 -2.69179e-15)
(8.0419e-06 9.43213e-16 -5.49914e-15)
(8.0419e-06 1.38931e-15 -3.89127e-15)
(8.0419e-06 1.17374e-15 -6.3356e-15)
(8.0419e-06 1.5876e-15 -4.82165e-15)
(8.0419e-06 1.51875e-15 -7.52775e-15)
(8.0419e-06 2.73494e-15 -6.87033e-15)
(8.0419e-06 3.95439e-15 -9.77854e-15)
(8.0419e-06 5.22584e-15 -6.10007e-15)
(8.0419e-06 4.0647e-15 -5.39336e-15)
(8.0419e-06 3.32796e-15 -2.58773e-15)
(8.0419e-06 1.17326e-15 -4.78737e-15)
(8.0419e-06 1.33375e-15 -4.3611e-15)
(8.0419e-06 2.08601e-15 -7.10351e-15)
(8.0419e-06 3.27856e-15 -3.16946e-15)
(8.0419e-06 2.15323e-15 -1.98218e-15)
(8.0419e-06 1.26193e-15 4.19277e-16)
(8.0419e-06 -9.47741e-16 -1.25119e-15)
(8.0419e-06 -1.06498e-15 -6.79991e-16)
(8.0419e-06 -4.69821e-16 -2.99661e-15)
(8.0419e-06 7.82575e-16 9.26029e-16)
(8.0419e-06 1.18114e-16 1.54106e-15)
(8.0419e-06 -5.16542e-16 3.83444e-15)
(8.0419e-06 -2.49262e-15 2.61779e-15)
(8.0419e-06 -3.02708e-15 3.60104e-15)
(8.0419e-06 -3.67373e-15 8.91678e-16)
(8.0419e-06 -2.74612e-15 2.75208e-15)
(8.0419e-06 -2.98061e-15 1.56132e-15)
(8.0419e-06 -2.61089e-15 1.49024e-15)
(8.0419e-06 -3.28012e-15 6.5769e-15)
(8.0419e-06 -2.46838e-15 1.20569e-15)
(8.0419e-06 -2.35575e-15 -2.45361e-15)
(8.0419e-06 -6.63685e-16 3.42767e-15)
(5.67752e-06 -2.39377e-12 2.07667e-11)
(5.67751e-06 1.69603e-12 -1.16083e-11)
(5.67752e-06 -1.06988e-12 4.51703e-12)
(5.67752e-06 1.61231e-13 -2.65916e-12)
(5.67752e-06 -5.18216e-14 -1.45904e-13)
(5.67752e-06 -6.86256e-14 1.8967e-14)
(5.67752e-06 -9.3456e-17 -6.22385e-13)
(5.67752e-06 -5.21454e-14 -1.92778e-13)
(5.67752e-06 -3.79999e-14 -1.93285e-13)
(5.67752e-06 -2.96436e-14 -2.24447e-13)
(5.67752e-06 -2.67948e-14 -1.64455e-13)
(5.67752e-06 -2.03794e-14 -1.32784e-13)
(5.67752e-06 -1.35488e-14 -1.15347e-13)
(5.67752e-06 -1.11606e-14 -9.77026e-14)
(5.67753e-06 -7.93959e-15 -8.24533e-14)
(5.67753e-06 -6.65116e-15 -7.27272e-14)
(5.67753e-06 -5.4114e-15 -6.24986e-14)
(5.67753e-06 -4.49377e-15 -5.72728e-14)
(5.67753e-06 -4.05122e-15 -5.0256e-14)
(5.67753e-06 -3.20469e-15 -4.76674e-14)
(5.67753e-06 -3.71006e-15 -4.21695e-14)
(5.67753e-06 -3.04061e-15 -4.07967e-14)
(5.67753e-06 -3.38524e-15 -3.67288e-14)
(5.67753e-06 -2.58881e-15 -3.51778e-14)
(5.67753e-06 -2.85769e-15 -3.16471e-14)
(5.67753e-06 -2.16155e-15 -3.02011e-14)
(5.67753e-06 -2.60441e-15 -2.82059e-14)
(5.67753e-06 -1.72992e-15 -2.80355e-14)
(5.67753e-06 -1.94441e-15 -2.61402e-14)
(5.67753e-06 -1.17161e-15 -2.35947e-14)
(5.67753e-06 -1.27074e-15 -2.01066e-14)
(5.67753e-06 -5.52903e-16 -1.86825e-14)
(5.67753e-06 -7.61624e-16 -1.69584e-14)
(5.67753e-06 -5.95389e-16 -1.57139e-14)
(5.67753e-06 -1.37951e-15 -1.51485e-14)
(5.67753e-06 -1.19496e-15 -1.66822e-14)
(5.67753e-06 -1.15921e-15 -1.61979e-14)
(5.67753e-06 -5.91716e-16 -1.51425e-14)
(5.67753e-06 -1.02906e-15 -1.18385e-14)
(5.67753e-06 -6.57194e-16 -1.11499e-14)
(5.67753e-06 -1.92501e-15 -1.00097e-14)
(5.67753e-06 -1.17224e-15 -1.16512e-14)
(5.67753e-06 -1.65701e-15 -8.90293e-15)
(5.67753e-06 -3.72913e-16 -6.60797e-15)
(5.67753e-06 -4.17905e-16 -1.61637e-15)
(5.67753e-06 6.49195e-16 -1.53908e-15)
(5.67753e-06 2.41766e-16 6.60212e-18)
(5.67753e-06 2.74615e-16 -2.36414e-16)
(5.67753e-06 -1.03815e-15 -1.87102e-16)
(5.67753e-06 -1.38048e-15 -4.14829e-15)
(5.67753e-06 -1.30287e-15 -3.21685e-15)
(5.67753e-06 -3.21494e-16 -3.76573e-15)
(5.67753e-06 -4.78309e-16 3.20853e-16)
(5.67753e-06 -2.28134e-17 -8.1322e-16)
(5.67753e-06 -1.50554e-15 7.07758e-16)
(5.67753e-06 -1.55525e-15 -4.78019e-15)
(5.67753e-06 -1.53118e-15 -2.27942e-15)
(5.67753e-06 -1.78697e-16 -3.43724e-15)
(5.67753e-06 -3.98818e-16 1.71077e-15)
(5.67753e-06 4.62174e-16 -3.72645e-16)
(5.67753e-06 -5.66278e-16 2.21969e-15)
(5.67753e-06 -5.03282e-16 -1.46901e-15)
(5.67753e-06 -1.30018e-15 -5.8893e-17)
(5.67753e-06 -1.04964e-15 -2.95614e-15)
(5.67753e-06 -1.5365e-15 -1.40148e-15)
(5.67753e-06 -1.22074e-15 -4.00109e-15)
(5.67753e-06 -1.63872e-15 -2.47573e-15)
(5.67753e-06 -1.31889e-15 -4.98466e-15)
(5.67753e-06 -1.6013e-15 -3.66727e-15)
(5.67753e-06 -1.36042e-15 -5.99594e-15)
(5.67753e-06 -1.68746e-15 -4.66375e-15)
(5.67753e-06 -1.54352e-15 -7.07585e-15)
(5.67753e-06 -2.39762e-15 -6.36715e-15)
(5.67753e-06 -1.98038e-15 -1.05053e-14)
(5.67753e-06 -1.91842e-15 -8.06863e-15)
(5.67753e-06 -1.93302e-16 -7.9607e-15)
(5.67753e-06 -4.76063e-16 -3.45545e-15)
(5.67753e-06 3.88971e-16 -4.29473e-15)
(5.67753e-06 -1.2901e-15 -3.1215e-15)
(5.67753e-06 -1.12948e-15 -6.97264e-15)
(5.67753e-06 -1.30207e-15 -5.1271e-15)
(5.67753e-06 1.00351e-16 -4.10222e-15)
(5.67753e-06 1.54974e-16 -3.43475e-16)
(5.67753e-06 7.24804e-16 -4.18556e-16)
(5.67753e-06 -7.22546e-16 1.60817e-16)
(5.67753e-06 -7.89838e-16 -3.00536e-15)
(5.67753e-06 -9.86295e-16 -1.06025e-15)
(5.67753e-06 4.64705e-16 -7.88713e-17)
(5.67753e-06 8.1278e-16 3.53866e-15)
(5.67753e-06 1.49171e-15 3.25629e-15)
(5.67753e-06 3.25825e-16 4.57987e-15)
(5.67753e-06 4.30542e-16 2.52454e-15)
(5.67753e-06 -7.80855e-16 2.93946e-15)
(5.67753e-06 -3.07393e-16 1.32313e-15)
(5.67753e-06 -1.43428e-15 2.93673e-15)
(5.67753e-06 -1.32328e-15 -4.07467e-17)
(5.67753e-06 -3.09178e-15 4.79855e-15)
(5.67753e-06 -2.49062e-15 9.31725e-16)
(5.67753e-06 -4.3765e-15 -1.38401e-15)
(5.67753e-06 -2.38195e-15 1.74056e-15)
(7.05758e-06 1.88268e-11 1.98999e-11)
(7.05757e-06 -1.17417e-11 -1.08972e-11)
(7.05758e-06 3.83162e-12 5.13698e-12)
(7.05757e-06 -2.39854e-12 -1.61307e-12)
(7.05758e-06 -1.61656e-13 4.44357e-13)
(7.05758e-06 1.15727e-13 5.2738e-13)
(7.05758e-06 -3.20029e-13 -6.31202e-14)
(7.05758e-06 -3.83817e-15 1.36691e-13)
(7.05758e-06 -2.63584e-14 9.14515e-14)
(7.05758e-06 -8.16587e-14 1.29777e-14)
(7.05758e-06 -5.33946e-14 4.11235e-14)
(7.05758e-06 -5.05238e-14 3.03482e-14)
(7.05758e-06 -4.8189e-14 2.95568e-14)
(7.05758e-06 -4.28402e-14 2.33781e-14)
(7.05758e-06 -3.66583e-14 2.37989e-14)
(7.05759e-06 -3.2207e-14 1.8623e-14)
(7.05759e-06 -2.774e-14 1.56841e-14)
(7.05759e-06 -2.32504e-14 1.18018e-14)
(7.05759e-06 -2.09384e-14 5.00774e-15)
(7.05759e-06 -1.63254e-14 5.00257e-15)
(7.05759e-06 -1.43427e-14 5.40247e-16)
(7.05759e-06 -1.16461e-14 2.82231e-15)
(7.05759e-06 -1.20069e-14 -1.35019e-15)
(7.05759e-06 -1.03472e-14 2.39766e-15)
(7.05759e-06 -1.01679e-14 7.34435e-16)
(7.05759e-06 -8.64586e-15 4.5958e-15)
(7.05759e-06 -7.94226e-15 2.18996e-15)
(7.05759e-06 -8.74051e-15 3.5376e-15)
(7.05759e-06 -8.04248e-15 1.21237e-15)
(7.05759e-06 -6.81872e-15 4.75688e-15)
(7.05759e-06 -5.68509e-15 3.59763e-15)
(7.05759e-06 -4.01817e-15 5.98209e-15)
(7.05759e-06 -4.52133e-15 2.59183e-15)
(7.05759e-06 -2.67276e-15 5.096e-15)
(7.05759e-06 -3.1441e-15 2.56848e-15)
(7.05759e-06 -3.70265e-15 5.27884e-15)
(7.05759e-06 -5.92858e-15 2.92979e-15)
(7.05759e-06 -4.46597e-15 7.82795e-15)
(7.05759e-06 -4.718e-15 5.46543e-15)
(7.05759e-06 -2.76218e-15 8.42359e-15)
(7.05759e-06 -1.64431e-15 2.66678e-15)
(7.05759e-06 -2.44234e-15 4.47451e-15)
(7.05759e-06 -4.97255e-16 1.02719e-15)
(7.05759e-06 2.15882e-16 6.81147e-15)
(7.05759e-06 8.48393e-16 3.42708e-15)
(7.05759e-06 2.42597e-15 6.24571e-15)
(7.05759e-06 1.01947e-15 -4.03124e-16)
(7.05759e-06 3.91402e-15 3.47965e-15)
(7.05759e-06 2.92736e-15 -9.95487e-16)
(7.05759e-06 2.17568e-15 2.84638e-15)
(7.05759e-06 -1.71247e-15 -1.17883e-15)
(7.05759e-06 1.61441e-17 6.04784e-15)
(7.05759e-06 -9.30431e-16 1.64762e-15)
(7.05759e-06 2.47877e-15 6.0463e-15)
(7.05759e-06 1.52955e-15 -9.77332e-16)
(7.05759e-06 2.02816e-15 3.64587e-15)
(7.05759e-06 -2.12557e-15 -2.91252e-15)
(7.05759e-06 8.11086e-16 5.66392e-15)
(7.05759e-06 -4.49478e-16 -4.83783e-16)
(7.05759e-06 3.79796e-15 5.23387e-15)
(7.05759e-06 2.37084e-15 -3.30755e-15)
(7.05759e-06 4.674e-15 1.7612e-15)
(7.05759e-06 1.98156e-15 -5.34075e-15)
(7.05759e-06 3.68433e-15 8.09242e-16)
(7.05759e-06 1.7022e-15 -4.70878e-15)
(7.05759e-06 3.09117e-15 1.3052e-15)
(7.05759e-06 1.33298e-15 -4.161e-15)
(7.05759e-06 2.13169e-15 1.56473e-15)
(7.05759e-06 6.25417e-16 -3.91813e-15)
(7.05759e-06 1.17781e-15 1.61802e-15)
(7.05759e-06 -3.60041e-16 -3.2522e-15)
(7.05759e-06 3.86594e-16 2.2478e-15)
(7.05759e-06 -1.28375e-15 -2.23224e-15)
(7.05759e-06 -2.03613e-15 3.80264e-15)
(7.05759e-06 -4.62196e-15 -7.3699e-16)
(7.05759e-06 -2.2587e-15 7.18333e-15)
(7.05759e-06 -2.91415e-15 1.6953e-15)
(7.05759e-06 -1.88626e-16 5.51924e-15)
(7.05759e-06 -5.51454e-16 -1.97754e-15)
(7.05759e-06 -5.13316e-16 2.6285e-15)
(7.05759e-06 -2.84767e-15 -2.15926e-15)
(7.05759e-06 -9.06496e-16 4.99636e-15)
(7.05759e-06 -1.41472e-15 4.75812e-16)
(7.05759e-06 1.37013e-15 3.12995e-15)
(7.05759e-06 6.17087e-16 -3.44203e-15)
(7.05759e-06 1.25121e-15 3.3072e-16)
(7.05759e-06 -1.10689e-15 -3.79886e-15)
(7.05759e-06 1.4669e-15 3.03024e-15)
(7.05759e-06 1.58102e-16 -1.73396e-15)
(7.05759e-06 3.63729e-15 1.03756e-15)
(7.05759e-06 3.76801e-15 -6.01918e-15)
(7.05759e-06 5.04101e-15 -3.09321e-15)
(7.05759e-06 3.45807e-15 -8.3115e-15)
(7.05759e-06 4.69355e-15 -2.88206e-15)
(7.05759e-06 4.08744e-15 -5.80591e-15)
(7.05759e-06 3.12658e-15 -1.28613e-15)
(7.05759e-06 5.26843e-15 -8.25853e-16)
(7.05759e-06 2.75111e-15 3.20053e-15)
(7.05759e-06 4.15554e-16 -1.98047e-15)
(7.05759e-06 1.77187e-15 3.62955e-15)
(1.63222e-05 2.72034e-11 3.55831e-11)
(1.63222e-05 -2.17509e-11 -3.94272e-11)
(1.63222e-05 9.38512e-12 1.72741e-11)
(1.63222e-05 -1.87097e-12 -6.30807e-12)
(1.63222e-05 3.50839e-13 2.75301e-13)
(1.63222e-05 1.07029e-12 1.92054e-12)
(1.63222e-05 -2.17534e-14 -4.85152e-13)
(1.63222e-05 3.56271e-13 3.31649e-13)
(1.63222e-05 2.43692e-13 3.33038e-13)
(1.63222e-05 6.84887e-14 6.31551e-14)
(1.63222e-05 6.93713e-14 1.03995e-13)
(1.63222e-05 5.15834e-14 9.96174e-14)
(1.63222e-05 3.64425e-14 8.00181e-14)
(1.63222e-05 3.09312e-14 6.6993e-14)
(1.63223e-05 2.69605e-14 6.23504e-14)
(1.63223e-05 2.56824e-14 5.18769e-14)
(1.63223e-05 2.34516e-14 4.42029e-14)
(1.63223e-05 2.6088e-14 3.7206e-14)
(1.63223e-05 2.34219e-14 2.69323e-14)
(1.63223e-05 2.67632e-14 2.29526e-14)
(1.63223e-05 2.50177e-14 1.4328e-14)
(1.63223e-05 2.48564e-14 1.44841e-14)
(1.63223e-05 2.01598e-14 8.79797e-15)
(1.63223e-05 1.91617e-14 1.09934e-14)
(1.63223e-05 1.55906e-14 7.26912e-15)
(1.63223e-05 1.60119e-14 9.59247e-15)
(1.63223e-05 1.32245e-14 6.26336e-15)
(1.63223e-05 1.3025e-14 6.90051e-15)
(1.63223e-05 1.15471e-14 6.21562e-15)
(1.63223e-05 1.33245e-14 1.00877e-14)
(1.63223e-05 1.29832e-14 8.49936e-15)
(1.63223e-05 1.39066e-14 8.87598e-15)
(1.63223e-05 1.19191e-14 5.55198e-15)
(1.63223e-05 1.38118e-14 8.97024e-15)
(1.63223e-05 1.09397e-14 6.95223e-15)
(1.63223e-05 9.63744e-15 8.1202e-15)
(1.63223e-05 5.51519e-15 6.2661e-15)
(1.63223e-05 7.53706e-15 1.19045e-14)
(1.63223e-05 5.87809e-15 1.09751e-14)
(1.63223e-05 9.24651e-15 1.34065e-14)
(1.63223e-05 6.6701e-15 6.70457e-15)
(1.63223e-05 9.76677e-15 7.26558e-15)
(1.63223e-05 7.17319e-15 4.15984e-15)
(1.63223e-05 1.02581e-14 9.68161e-15)
(1.63223e-05 9.25902e-15 6.57774e-15)
(1.63223e-05 9.69157e-15 8.70636e-15)
(1.63223e-05 8.62749e-15 1.71627e-15)
(1.63223e-05 1.05328e-14 6.04995e-15)
(1.63223e-05 8.3897e-15 1.67772e-16)
(1.63223e-05 6.6063e-15 3.19587e-15)
(1.63223e-05 1.48064e-15 -1.24311e-16)
(1.63223e-05 3.71659e-15 8.97742e-15)
(1.63223e-05 3.75858e-15 5.27089e-15)
(1.63223e-05 5.91724e-15 9.84689e-15)
(1.63223e-05 5.24116e-15 6.74996e-16)
(1.63223e-05 4.91088e-15 4.45404e-15)
(1.63223e-05 7.75063e-16 -1.06863e-15)
(1.63223e-05 3.61952e-15 8.79497e-15)
(1.63223e-05 4.83333e-15 1.66722e-15)
(1.63223e-05 6.7543e-15 7.17682e-15)
(1.63223e-05 4.99548e-15 -4.11143e-15)
(1.63223e-05 5.92063e-15 4.66869e-16)
(1.63223e-05 3.53109e-15 -7.78032e-15)
(1.63223e-05 5.6447e-15 -4.12076e-16)
(1.63223e-05 3.7927e-15 -6.73258e-15)
(1.63223e-05 6.07143e-15 5.6934e-16)
(1.63223e-05 3.56151e-15 -5.91043e-15)
(1.63223e-05 5.95174e-15 1.04416e-15)
(1.63223e-05 2.93259e-15 -5.20044e-15)
(1.63223e-05 5.40414e-15 1.60368e-15)
(1.63223e-05 2.26476e-15 -3.94141e-15)
(1.63223e-05 4.65285e-15 2.12154e-15)
(1.63223e-05 1.38485e-15 -3.33796e-15)
(1.63223e-05 3.06661e-15 3.15102e-15)
(1.63223e-05 -9.1163e-16 2.25177e-16)
(1.63223e-05 2.95664e-15 1.03384e-14)
(1.63223e-05 2.75865e-15 5.47599e-15)
(1.63223e-05 5.24719e-15 9.28099e-15)
(1.63223e-05 3.06925e-15 -1.04226e-15)
(1.63223e-05 2.80984e-15 1.81741e-15)
(1.63223e-05 -8.35349e-16 -2.37474e-15)
(1.63223e-05 1.63431e-15 6.87617e-15)
(1.63223e-05 2.46674e-15 3.08963e-15)
(1.63223e-05 3.68752e-15 5.75017e-15)
(1.63223e-05 2.67994e-15 -3.41623e-15)
(1.63223e-05 1.45312e-15 -1.44518e-15)
(1.63223e-05 -6.47957e-16 -5.0156e-15)
(1.63223e-05 7.14621e-16 3.05941e-15)
(1.63223e-05 1.09546e-15 -1.17517e-15)
(1.63223e-05 3.38748e-15 1.33221e-15)
(1.63223e-05 3.15161e-15 -7.48058e-15)
(1.63223e-05 3.78179e-15 -5.70459e-15)
(1.63223e-05 1.75616e-15 -1.25195e-14)
(1.63223e-05 2.94163e-15 -6.7456e-15)
(1.63223e-05 1.48437e-15 -9.61699e-15)
(1.63223e-05 1.08892e-16 -7.64691e-15)
(1.63223e-05 2.37289e-15 -3.28518e-16)
(1.63223e-05 -9.20073e-15 -9.47605e-15)
(1.63223e-05 -1.09655e-14 -2.05814e-14)
(1.63223e-05 -2.05672e-15 -8.59579e-15)
(1.91534e-05 3.5709e-13 3.12268e-11)
(1.91533e-05 1.64848e-12 -3.31303e-11)
(1.91534e-05 1.91665e-12 2.4262e-11)
(1.91534e-05 1.64991e-12 -9.48328e-12)
(1.91534e-05 1.41012e-12 1.53703e-12)
(1.91534e-05 9.93415e-13 2.92944e-12)
(1.91534e-05 7.03701e-13 -6.12832e-13)
(1.91534e-05 5.5264e-13 5.58842e-13)
(1.91534e-05 3.55361e-13 5.19532e-13)
(1.91534e-05 2.63917e-13 1.74365e-13)
(1.91534e-05 2.14788e-13 1.94272e-13)
(1.91534e-05 1.87715e-13 1.94491e-13)
(1.91534e-05 1.68787e-13 1.58204e-13)
(1.91534e-05 1.50328e-13 1.3321e-13)
(1.91534e-05 1.3494e-13 1.20892e-13)
(1.91534e-05 1.19035e-13 1.00697e-13)
(1.91534e-05 1.08661e-13 9.10306e-14)
(1.91534e-05 9.60015e-14 7.41272e-14)
(1.91534e-05 9.15436e-14 6.84562e-14)
(1.91534e-05 8.15725e-14 5.31191e-14)
(1.91534e-05 7.73116e-14 4.93942e-14)
(1.91534e-05 6.76187e-14 3.96433e-14)
(1.91534e-05 6.38497e-14 3.85152e-14)
(1.91534e-05 5.73543e-14 3.28118e-14)
(1.91534e-05 5.40805e-14 3.18916e-14)
(1.91534e-05 4.9989e-14 2.78814e-14)
(1.91534e-05 4.72339e-14 2.80693e-14)
(1.91534e-05 4.71401e-14 2.55564e-14)
(1.91534e-05 4.54772e-14 2.55434e-14)
(1.91534e-05 4.32014e-14 2.43668e-14)
(1.91534e-05 4.06408e-14 2.43763e-14)
(1.91534e-05 3.79351e-14 2.09555e-14)
(1.91534e-05 3.71022e-14 2.07695e-14)
(1.91534e-05 3.33991e-14 1.89493e-14)
(1.91534e-05 2.99228e-14 1.91934e-14)
(1.91534e-05 2.75395e-14 1.60548e-14)
(1.91534e-05 3.12179e-14 1.89688e-14)
(1.91534e-05 2.90556e-14 1.91925e-14)
(1.91534e-05 2.79146e-14 2.23343e-14)
(1.91534e-05 2.26493e-14 1.80645e-14)
(1.91534e-05 2.0098e-14 1.69916e-14)
(1.91534e-05 2.0742e-14 1.19196e-14)
(1.91534e-05 2.07113e-14 1.44409e-14)
(1.91534e-05 1.77425e-14 1.26501e-14)
(1.91534e-05 1.77419e-14 1.57567e-14)
(1.91534e-05 1.16511e-14 8.41946e-15)
(1.91534e-05 1.52131e-14 9.96291e-15)
(1.91534e-05 8.63811e-15 5.79466e-15)
(1.91534e-05 7.83396e-15 6.89289e-15)
(1.91534e-05 2.368e-15 1.49333e-15)
(1.91534e-05 1.05094e-14 7.97428e-15)
(1.91534e-05 6.82398e-15 6.28633e-15)
(1.91534e-05 1.26642e-14 1.40642e-14)
(1.91534e-05 2.5335e-15 6.31822e-15)
(1.91534e-05 5.15542e-15 8.95524e-15)
(1.91534e-05 -2.11983e-15 5.44135e-17)
(1.91534e-05 9.79802e-15 8.13942e-15)
(1.91534e-05 4.67662e-15 4.4044e-15)
(1.91534e-05 1.27743e-14 1.2161e-14)
(1.91534e-05 2.19075e-15 2.58911e-15)
(1.91534e-05 5.64152e-15 5.21208e-15)
(1.91534e-05 -3.00337e-15 -4.4177e-15)
(1.91534e-05 2.92577e-15 6.81878e-16)
(1.91534e-05 -1.82284e-15 -4.66626e-15)
(1.91534e-05 4.28471e-15 1.47821e-15)
(1.91534e-05 2.55007e-16 -3.48742e-15)
(1.91534e-05 5.4215e-15 3.0066e-15)
(1.91534e-05 1.77009e-15 -2.48858e-15)
(1.91534e-05 6.06953e-15 3.9412e-15)
(1.91534e-05 2.95743e-15 -1.4511e-15)
(1.91534e-05 6.6633e-15 4.90631e-15)
(1.91534e-05 3.07661e-15 -4.11344e-16)
(1.91534e-05 7.20109e-15 5.45678e-15)
(1.91534e-05 5.60956e-15 5.6464e-16)
(1.91534e-05 1.519e-14 9.49905e-15)
(1.91534e-05 1.28115e-14 7.60855e-15)
(1.91534e-05 1.66191e-14 1.4001e-14)
(1.91534e-05 7.56817e-15 6.7959e-15)
(1.91534e-05 7.20868e-15 6.71991e-15)
(1.91534e-05 2.81954e-15 -1.51748e-16)
(1.91534e-05 9.81222e-15 4.5988e-15)
(1.91534e-05 8.0451e-15 5.02734e-15)
(1.91534e-05 1.03261e-14 8.67583e-15)
(1.91534e-05 1.75116e-15 3.65035e-15)
(1.91534e-05 6.27018e-16 7.59885e-16)
(1.91534e-05 -4.78048e-15 -4.71031e-15)
(1.91534e-05 2.76201e-15 -5.08353e-16)
(1.91534e-05 5.8725e-16 5.39516e-16)
(1.91534e-05 4.323e-15 3.66755e-15)
(1.91534e-05 -3.12228e-15 -2.54615e-15)
(1.91534e-05 -3.89703e-15 -3.64598e-15)
(1.91534e-05 -9.96697e-15 -1.08459e-14)
(1.91534e-05 -6.24458e-15 -9.01403e-15)
(1.91534e-05 -9.72363e-15 -1.22023e-14)
(1.91534e-05 -5.92582e-15 -5.07052e-15)
(1.91534e-05 -9.69198e-15 -1.2313e-14)
(1.91534e-05 -7.88928e-15 4.70464e-15)
(1.91534e-05 -1.04073e-14 -8.60429e-15)
(1.91534e-05 -5.98509e-15 -1.94485e-14)
(1.91534e-05 -1.44361e-15 -1.46408e-14)
(1.63222e-05 -2.61228e-11 3.56056e-11)
(1.63222e-05 2.40929e-11 -3.72778e-11)
(1.63222e-05 -7.04571e-12 1.63767e-11)
(1.63222e-05 3.91055e-12 -7.13258e-12)
(1.63222e-05 1.46352e-12 2.94249e-13)
(1.63222e-05 2.61195e-13 1.66569e-12)
(1.63222e-05 9.88599e-13 -8.17438e-13)
(1.63222e-05 3.72043e-13 1.22736e-13)
(1.63222e-05 2.49938e-13 1.38407e-13)
(1.63222e-05 2.71641e-13 -1.01496e-13)
(1.63222e-05 2.05894e-13 -2.56428e-14)
(1.63222e-05 1.79392e-13 1.44933e-17)
(1.63222e-05 1.76791e-13 -5.63104e-15)
(1.63222e-05 1.57793e-13 9.48349e-17)
(1.63223e-05 1.42411e-13 5.36773e-15)
(1.63223e-05 1.26263e-13 6.20721e-15)
(1.63223e-05 1.12257e-13 5.04622e-15)
(1.63223e-05 9.85322e-14 4.2351e-15)
(1.63223e-05 8.78106e-14 2.58422e-16)
(1.63223e-05 7.85145e-14 -2.91521e-15)
(1.63223e-05 6.86912e-14 -5.79309e-15)
(1.63223e-05 6.30723e-14 -7.21304e-15)
(1.63223e-05 5.77179e-14 -8.36714e-15)
(1.63223e-05 5.53128e-14 -7.53788e-15)
(1.63223e-05 5.12367e-14 -7.51617e-15)
(1.63223e-05 4.92969e-14 -6.1522e-15)
(1.63223e-05 4.69847e-14 -6.00734e-15)
(1.63223e-05 4.7462e-14 -6.92817e-15)
(1.63223e-05 4.6198e-14 -6.27916e-15)
(1.63223e-05 4.39095e-14 -3.3091e-15)
(1.63223e-05 3.98347e-14 -1.54118e-15)
(1.63223e-05 3.87481e-14 -1.62543e-16)
(1.63223e-05 3.61889e-14 -1.09566e-15)
(1.63223e-05 3.27733e-14 3.78166e-16)
(1.63223e-05 2.87e-14 -1.42907e-15)
(1.63223e-05 3.03806e-14 -1.3796e-15)
(1.63223e-05 3.34024e-14 -3.09255e-15)
(1.63223e-05 3.33915e-14 1.61129e-15)
(1.63223e-05 2.8573e-14 1.96423e-15)
(1.63223e-05 2.45012e-14 3.74454e-15)
(1.63223e-05 2.00498e-14 5.24469e-16)
(1.63223e-05 2.10706e-14 -1.1636e-15)
(1.63223e-05 2.0206e-14 -2.32394e-15)
(1.63223e-05 1.89594e-14 3.04729e-15)
(1.63223e-05 1.41933e-14 4.32359e-15)
(1.63223e-05 1.27422e-14 9.10149e-15)
(1.63223e-05 9.93386e-15 3.12512e-15)
(1.63223e-05 6.81243e-15 6.64305e-15)
(1.63223e-05 2.11328e-15 -7.3337e-16)
(1.63223e-05 4.78065e-15 2.88257e-15)
(1.63223e-05 1.03621e-14 -2.81239e-15)
(1.63223e-05 1.33566e-14 6.17568e-15)
(1.63223e-05 9.17537e-15 2.3553e-15)
(1.63223e-05 5.50925e-15 8.72074e-15)
(1.63223e-05 -8.88728e-16 -1.625e-16)
(1.63223e-05 2.0738e-15 3.40893e-15)
(1.63223e-05 7.80784e-15 -4.9839e-15)
(1.63223e-05 1.1477e-14 6.29541e-15)
(1.63223e-05 6.97989e-15 7.40088e-16)
(1.63223e-05 4.83597e-15 8.04779e-15)
(1.63223e-05 -1.72892e-16 -1.47094e-15)
(1.63223e-05 -1.03841e-15 2.4814e-15)
(1.63223e-05 -1.1048e-15 -6.18207e-15)
(1.63223e-05 1.24467e-16 -4.57135e-17)
(1.63223e-05 7.70237e-16 -7.03285e-15)
(1.63223e-05 2.23157e-15 -5.15873e-16)
(1.63223e-05 2.63849e-15 -6.68172e-15)
(1.63223e-05 3.75964e-15 -6.85258e-16)
(1.63223e-05 4.2774e-15 -6.52536e-15)
(1.63223e-05 5.53651e-15 -1.24164e-15)
(1.63223e-05 5.49254e-15 -6.63662e-15)
(1.63223e-05 6.73428e-15 -1.5013e-15)
(1.63223e-05 6.82885e-15 -6.82253e-15)
(1.63223e-05 1.29748e-14 -2.56499e-15)
(1.63223e-05 1.77743e-14 -5.6168e-15)
(1.63223e-05 2.19e-14 2.81542e-15)
(1.63223e-05 1.56528e-14 1.10387e-15)
(1.63223e-05 1.18875e-14 5.72172e-15)
(1.63223e-05 5.0226e-15 -1.88867e-15)
(1.63223e-05 7.75117e-15 -1.00226e-15)
(1.63223e-05 1.17418e-14 -5.50426e-15)
(1.63223e-05 1.43384e-14 2.38975e-15)
(1.63223e-05 8.14703e-15 4.78048e-16)
(1.63223e-05 3.32263e-15 5.33144e-15)
(1.63223e-05 -4.0703e-15 -1.73564e-15)
(1.63223e-05 -1.96817e-15 -6.76297e-16)
(1.63223e-05 2.05872e-15 -5.86526e-15)
(1.63223e-05 4.97363e-15 3.10624e-15)
(1.63223e-05 5.01847e-16 7.8342e-16)
(1.63223e-05 -3.24611e-15 5.61155e-15)
(1.63223e-05 -1.0908e-14 -1.55167e-15)
(1.63223e-05 -1.20506e-14 -1.74472e-17)
(1.63223e-05 -1.36418e-14 -7.05107e-15)
(1.63223e-05 -1.16542e-14 -2.58322e-15)
(1.63223e-05 -1.25198e-14 -5.51679e-15)
(1.63223e-05 -9.71165e-15 -5.13325e-15)
(1.63223e-05 -1.56038e-14 8.2315e-16)
(1.63223e-05 -1.39565e-15 -1.17444e-14)
(1.63223e-05 2.48617e-15 -1.79582e-14)
(1.63223e-05 -1.25439e-15 -5.88676e-15)
(7.05758e-06 -1.81071e-11 1.94708e-11)
(7.05757e-06 1.2572e-11 -1.12893e-11)
(7.05758e-06 -3.19997e-12 4.41933e-12)
(7.05757e-06 2.89802e-12 -2.22763e-12)
(7.05758e-06 5.86432e-13 1.82663e-13)
(7.05758e-06 2.45722e-13 1.37899e-13)
(7.05758e-06 6.25166e-13 -3.67235e-13)
(7.05758e-06 2.20153e-13 -8.09395e-14)
(7.05758e-06 1.94383e-13 -8.19619e-14)
(7.05758e-06 1.93554e-13 -1.38877e-13)
(7.05758e-06 1.44545e-13 -8.54226e-14)
(7.05758e-06 1.24492e-13 -7.78686e-14)
(7.05758e-06 1.14964e-13 -5.97935e-14)
(7.05758e-06 1.01299e-13 -5.29895e-14)
(7.05758e-06 8.80326e-14 -3.9821e-14)
(7.05759e-06 7.89368e-14 -3.5645e-14)
(7.05759e-06 6.7767e-14 -3.06597e-14)
(7.05759e-06 6.26323e-14 -2.77785e-14)
(7.05759e-06 5.26901e-14 -2.82169e-14)
(7.05759e-06 4.94406e-14 -2.39312e-14)
(7.05759e-06 4.0889e-14 -2.5299e-14)
(7.05759e-06 4.01349e-14 -2.0492e-14)
(7.05759e-06 3.44599e-14 -2.28441e-14)
(7.05759e-06 3.44137e-14 -1.75692e-14)
(7.05759e-06 3.00965e-14 -1.89308e-14)
(7.05759e-06 3.02739e-14 -1.3843e-14)
(7.05759e-06 2.75617e-14 -1.72501e-14)
(7.05759e-06 2.86454e-14 -1.28943e-14)
(7.05759e-06 2.6548e-14 -1.56864e-14)
(7.05759e-06 2.57912e-14 -9.77463e-15)
(7.05759e-06 2.22634e-14 -1.07183e-14)
(7.05759e-06 2.22071e-14 -6.4329e-15)
(7.05759e-06 1.94333e-14 -9.20342e-15)
(7.05759e-06 1.91061e-14 -4.80463e-15)
(7.05759e-06 1.64263e-14 -9.00715e-15)
(7.05759e-06 1.931e-14 -5.66463e-15)
(7.05759e-06 1.81263e-14 -9.86705e-15)
(7.05759e-06 1.9564e-14 -3.95572e-15)
(7.05759e-06 1.51377e-14 -6.94948e-15)
(7.05759e-06 1.5608e-14 -1.60823e-15)
(7.05759e-06 1.09694e-14 -8.73012e-15)
(7.05759e-06 1.35956e-14 -1.93751e-15)
(7.05759e-06 9.58623e-15 -7.84573e-15)
(7.05759e-06 1.0688e-14 2.49308e-15)
(7.05759e-06 4.69915e-15 -1.90879e-15)
(7.05759e-06 6.7264e-15 5.89699e-15)
(7.05759e-06 2.09478e-15 -2.05338e-15)
(7.05759e-06 3.07788e-15 5.38598e-15)
(7.05759e-06 -4.92388e-16 -3.57857e-15)
(7.05759e-06 5.26615e-15 2.23728e-15)
(7.05759e-06 3.76442e-15 -5.43846e-15)
(7.05759e-06 8.40359e-15 4.56613e-15)
(7.05759e-06 1.68143e-15 -2.84488e-15)
(7.05759e-06 4.40576e-15 6.59491e-15)
(7.05759e-06 -2.32371e-15 -4.9007e-15)