/*--------------------------------*- C++ -*----------------------------------*\
| =========                 |                                                 |
| \\      /  F ield         | OpenFOAM: The Open Source CFD Toolbox           |
|  \\    /   O peration     | Version:  2412                                  |
|   \\  /    A nd           | Website:  www.openfoam.com                      |
|    \\/     M anipulation  |                                                 |
\*---------------------------------------------------------------------------*/
FoamFile
{
    version     2.0;
    format      ascii;
    arch        "LSB;label=32;scalar=64";
    class       volVectorField;
    location    "150";
    object      U;
}
// * * * * * * * * * * * * * * * * * * * * * * * * * * * * * * * * * * * * * //

dimensions      [0 1 -1 0 0 0 0];

internalField   nonuniform List<vector> 
40500
(
(1.45549e-05 1.22049e-12 -8.77037e-13)
(1.4555e-05 8.02813e-13 -7.6885e-12)
(1.4555e-05 1.19097e-12 1.60978e-12)
(1.4555e-05 5.63733e-13 -8.71217e-13)
(1.4555e-05 4.90403e-13 4.98262e-13)
(1.4555e-05 3.03368e-13 3.25602e-13)
(1.4555e-05 1.13945e-13 1.62204e-14)
(1.4555e-05 -1.73619e-15 2.54193e-14)
(1.4555e-05 -8.18908e-14 -1.05732e-13)
(1.4555e-05 -1.13103e-13 -1.46432e-13)
(1.4555e-05 -1.32106e-13 -1.45767e-13)
(1.4555e-05 -1.22742e-13 -1.43465e-13)
(1.4555e-05 -1.02986e-13 -1.32416e-13)
(1.4555e-05 -7.40299e-14 -1.07415e-13)
(1.4555e-05 -5.00549e-14 -8.07016e-14)
(1.4555e-05 -2.67694e-14 -5.29357e-14)
(1.4555e-05 -1.28868e-14 -3.11246e-14)
(1.4555e-05 -2.42889e-16 -1.04578e-14)
(1.4555e-05 9.11861e-15 3.3109e-15)
(1.4555e-05 1.87906e-14 1.56478e-14)
(1.4555e-05 2.40334e-14 2.52993e-14)
(1.4555e-05 2.61028e-14 3.30745e-14)
(1.4555e-05 2.49615e-14 3.79271e-14)
(1.4555e-05 2.34889e-14 4.08508e-14)
(1.4555e-05 2.19765e-14 4.0054e-14)
(1.4555e-05 2.22186e-14 4.21057e-14)
(1.4555e-05 2.04173e-14 4.13524e-14)
(1.4555e-05 1.87705e-14 4.34411e-14)
(1.4555e-05 1.35833e-14 3.90994e-14)
(1.4555e-05 1.12161e-14 3.88972e-14)
(1.4555e-05 7.5631e-15 3.48969e-14)
(1.4555e-05 7.22837e-15 3.5796e-14)
(1.4555e-05 4.3683e-15 3.23021e-14)
(1.4555e-05 3.4895e-15 3.308e-14)
(1.4555e-05 2.1332e-16 3.02869e-14)
(1.4555e-05 7.11543e-16 3.22106e-14)
(1.4555e-05 9.09445e-16 3.00075e-14)
(1.4555e-05 4.20146e-15 3.10892e-14)
(1.4555e-05 2.93589e-15 2.66854e-14)
(1.4555e-05 1.81469e-15 2.47714e-14)
(1.4555e-05 -3.26346e-15 1.7966e-14)
(1.4555e-05 -5.50355e-15 1.2796e-14)
(1.4555e-05 -4.42381e-15 7.38357e-15)
(1.4555e-05 1.97228e-15 8.22322e-15)
(1.4555e-05 6.25925e-15 6.77281e-15)
(1.4555e-05 8.88021e-15 7.38197e-15)
(1.4555e-05 4.43395e-15 -1.61663e-16)
(1.4555e-05 8.11804e-16 -4.95676e-15)
(1.4555e-05 -4.87308e-15 -1.36694e-14)
(1.4555e-05 -6.13927e-15 -1.69926e-14)
(1.4555e-05 -7.59732e-15 -2.26315e-14)
(1.4555e-05 -6.07513e-15 -2.33401e-14)
(1.4555e-05 -8.99668e-15 -2.9927e-14)
(1.4555e-05 -1.20427e-14 -3.35618e-14)
(1.4555e-05 -1.85308e-14 -4.15948e-14)
(1.4555e-05 -2.2e-14 -4.72014e-14)
(1.4555e-05 -2.13871e-14 -5.13495e-14)
(1.4555e-05 -1.55203e-14 -4.84474e-14)
(1.4555e-05 -1.1214e-14 -4.59239e-14)
(1.4555e-05 -9.48489e-15 -4.19393e-14)
(1.4555e-05 -1.33489e-14 -4.49497e-14)
(1.4555e-05 -1.53882e-14 -4.7709e-14)
(1.4555e-05 -1.2646e-14 -4.85718e-14)
(1.4555e-05 -4.5206e-15 -4.2281e-14)
(1.4555e-05 3.19073e-15 -3.50621e-14)
(1.4555e-05 1.02454e-14 -2.50803e-14)
(1.4555e-05 1.35094e-14 -1.84435e-14)
(1.4555e-05 1.83484e-14 -1.34233e-14)
(1.4555e-05 2.39423e-14 -1.1411e-14)
(1.4555e-05 3.18987e-14 -1.02299e-14)
(1.4555e-05 3.89558e-14 -1.01842e-14)
(1.4555e-05 4.48162e-14 -1.04798e-14)
(1.4555e-05 4.77308e-14 -1.22186e-14)
(1.4555e-05 4.94811e-14 -1.42188e-14)
(1.4555e-05 4.87539e-14 -1.70691e-14)
(1.4555e-05 4.69252e-14 -1.93257e-14)
(1.4555e-05 4.35463e-14 -2.10631e-14)
(1.4555e-05 3.9892e-14 -2.08789e-14)
(1.4555e-05 3.59934e-14 -1.83702e-14)
(1.4555e-05 3.38472e-14 -1.29228e-14)
(1.4555e-05 3.58064e-14 -1.67335e-15)
(1.4555e-05 4.47623e-14 1.97582e-14)
(1.4555e-05 5.32878e-14 4.80189e-14)
(1.4555e-05 6.89713e-14 9.22158e-14)
(1.4555e-05 8.83947e-14 1.39811e-13)
(1.4555e-05 1.20171e-13 1.91928e-13)
(1.4555e-05 1.65595e-13 2.39955e-13)
(1.4555e-05 2.28814e-13 2.97156e-13)
(1.4555e-05 2.75516e-13 3.47346e-13)
(1.4555e-05 3.29911e-13 4.00979e-13)
(1.4555e-05 3.46513e-13 3.96383e-13)
(1.4555e-05 3.43997e-13 3.38947e-13)
(1.4555e-05 2.40629e-13 1.81255e-13)
(1.4555e-05 7.04729e-14 -2.30224e-14)
(1.4555e-05 -1.31852e-13 -2.67727e-13)
(1.4555e-05 -3.55687e-13 -3.24147e-13)
(1.4555e-05 -5.69533e-13 8.43173e-14)
(1.4555e-05 -9.86062e-13 6.11097e-13)
(1.4555e-05 -1.66807e-12 5.45532e-12)
(1.45549e-05 -8.10517e-13 1.11467e-11)
(2.03489e-05 1.32565e-13 4.92304e-13)
(2.03489e-05 1.23795e-13 -9.06623e-12)
(2.03489e-05 3.16679e-13 3.20323e-12)
(2.03489e-05 3.83072e-13 -4.46318e-13)
(2.03489e-05 4.25232e-13 1.05406e-12)
(2.03489e-05 4.05873e-13 8.3926e-13)
(2.03489e-05 3.54643e-13 3.3385e-13)
(2.03489e-05 3.00648e-13 2.49071e-13)
(2.03489e-05 2.29562e-13 6.64328e-15)
(2.03489e-05 1.64506e-13 -1.11267e-13)
(2.03489e-05 9.44516e-14 -1.44803e-13)
(2.03489e-05 4.19316e-14 -1.68222e-13)
(2.03489e-05 6.88803e-16 -1.69962e-13)
(2.03489e-05 -2.14595e-14 -1.55362e-13)
(2.03489e-05 -3.71591e-14 -1.27745e-13)
(2.03489e-05 -4.10363e-14 -9.80134e-14)
(2.03489e-05 -4.36737e-14 -6.97088e-14)
(2.03489e-05 -4.13606e-14 -4.73013e-14)
(2.03489e-05 -3.59086e-14 -2.7547e-14)
(2.03489e-05 -2.50879e-14 -9.5496e-15)
(2.03489e-05 -1.48423e-14 7.03159e-15)
(2.03489e-05 -6.10299e-15 1.97683e-14)
(2.03489e-05 2.05098e-16 2.91931e-14)
(2.03489e-05 6.32752e-15 3.54145e-14)
(2.03489e-05 1.19532e-14 4.05355e-14)
(2.03489e-05 1.78432e-14 4.58644e-14)
(2.03489e-05 2.06139e-14 5.07956e-14)
(2.03489e-05 2.15653e-14 5.30611e-14)
(2.03489e-05 1.86413e-14 5.22037e-14)
(2.03489e-05 1.72103e-14 5.05999e-14)
(2.03489e-05 1.42042e-14 4.92764e-14)
(2.03489e-05 1.34999e-14 4.80326e-14)
(2.03489e-05 9.98948e-15 4.62485e-14)
(2.03489e-05 7.70166e-15 4.38185e-14)
(2.03489e-05 3.31491e-15 4.15542e-14)
(2.03489e-05 3.11724e-15 4.02495e-14)
(2.03489e-05 3.07362e-15 4.00955e-14)
(2.03489e-05 5.23164e-15 3.88924e-14)
(2.03489e-05 1.84012e-15 3.49306e-14)
(2.03489e-05 -2.45515e-15 2.753e-14)
(2.03489e-05 -1.00899e-14 1.80311e-14)
(2.03489e-05 -1.3122e-14 9.56069e-15)
(2.03489e-05 -1.0259e-14 5.85227e-15)
(2.03489e-05 -1.43402e-16 8.00421e-15)
(2.03489e-05 7.81883e-15 1.08648e-14)
(2.03489e-05 1.17226e-14 8.02723e-15)
(2.03489e-05 6.32162e-15 5.16532e-17)
(2.03489e-05 2.75244e-18 -1.0497e-14)
(2.03489e-05 -8.12395e-15 -2.03532e-14)
(2.03489e-05 -1.09346e-14 -2.79429e-14)
(2.03489e-05 -1.23368e-14 -3.15132e-14)
(2.03489e-05 -1.04801e-14 -3.48476e-14)
(2.03489e-05 -1.3119e-14 -3.97619e-14)
(2.03489e-05 -1.64339e-14 -4.66521e-14)
(2.03489e-05 -2.24586e-14 -5.47856e-14)
(2.03489e-05 -2.39382e-14 -6.08564e-14)
(2.03489e-05 -1.86993e-14 -6.13673e-14)
(2.03489e-05 -7.22995e-15 -5.49677e-14)
(2.03489e-05 1.66508e-15 -4.648e-14)
(2.03489e-05 4.86861e-15 -4.34441e-14)
(2.03489e-05 -1.2053e-17 -4.75119e-14)
(2.03489e-05 -4.85194e-15 -5.2212e-14)
(2.03489e-05 -4.74632e-15 -5.19745e-14)
(2.03489e-05 1.20184e-16 -4.40055e-14)
(2.03489e-05 2.79376e-15 -3.3331e-14)
(2.03489e-05 1.81507e-15 -2.50641e-14)
(2.03489e-05 -5.05407e-15 -1.89209e-14)
(2.03489e-05 -1.17926e-14 -1.67062e-14)
(2.03489e-05 -1.61531e-14 -1.63586e-14)
(2.03489e-05 -1.5685e-14 -1.68745e-14)
(2.03489e-05 -1.34035e-14 -1.76489e-14)
(2.03489e-05 -1.06343e-14 -2.06432e-14)
(2.03489e-05 -8.78658e-15 -2.45624e-14)
(2.03489e-05 -6.03811e-15 -2.98892e-14)
(2.03489e-05 -2.87754e-15 -3.43438e-14)
(2.03489e-05 1.65728e-15 -3.78373e-14)
(2.03489e-05 7.05975e-15 -3.8214e-14)
(2.03489e-05 1.25472e-14 -3.52599e-14)
(2.03489e-05 1.87574e-14 -2.62586e-14)
(2.03489e-05 2.6508e-14 -1.02463e-14)
(2.03489e-05 3.80619e-14 1.74922e-14)
(2.03489e-05 5.49582e-14 5.58167e-14)
(2.03489e-05 7.01402e-14 1.07668e-13)
(2.03489e-05 8.15384e-14 1.7231e-13)
(2.03489e-05 8.21192e-14 2.42965e-13)
(2.03489e-05 8.9514e-14 3.13683e-13)
(2.03489e-05 1.09111e-13 3.81546e-13)
(2.03489e-05 1.47137e-13 4.42589e-13)
(2.03489e-05 1.47976e-13 5.02011e-13)
(2.03489e-05 1.09427e-13 5.19248e-13)
(2.03489e-05 -1.17717e-14 4.57335e-13)
(2.03489e-05 -1.27032e-13 2.6195e-13)
(2.03489e-05 -2.67464e-13 -4.51771e-14)
(2.03489e-05 -3.69189e-13 -4.626e-13)
(2.03489e-05 -4.3513e-13 -9.46709e-13)
(2.03489e-05 -4.49304e-13 -1.16187e-12)
(2.03489e-05 -3.66278e-13 -7.138e-13)
(2.03489e-05 -1.20932e-13 -4.99665e-13)
(2.03489e-05 2.2984e-13 4.48246e-12)
(2.03489e-05 4.12676e-13 1.25326e-11)
(1.45549e-05 -1.13715e-12 -8.81638e-13)
(1.4555e-05 -8.70145e-13 -7.32046e-12)
(1.4555e-05 -1.14788e-12 1.89118e-12)
(1.4555e-05 -4.92887e-13 -5.60801e-13)
(1.4555e-05 -4.42688e-13 7.50741e-13)
(1.4555e-05 -3.06221e-13 5.4009e-13)
(1.4555e-05 -1.86538e-13 1.966e-13)
(1.4555e-05 -1.15166e-13 1.80784e-13)
(1.4555e-05 -5.90567e-14 1.6433e-14)
(1.4555e-05 -2.97118e-14 -6.08e-14)
(1.4555e-05 -7.48284e-15 -8.67171e-14)
(1.4555e-05 7.54757e-15 -1.0643e-13)
(1.4555e-05 1.83648e-14 -1.06987e-13)
(1.4555e-05 2.9226e-14 -9.77006e-14)
(1.4555e-05 3.9809e-14 -8.39251e-14)
(1.4555e-05 4.77962e-14 -6.51293e-14)
(1.4555e-05 5.32357e-14 -4.73713e-14)
(1.4555e-05 5.59813e-14 -3.28499e-14)
(1.4555e-05 5.72063e-14 -2.06576e-14)
(1.4555e-05 5.70084e-14 -9.62187e-15)
(1.4555e-05 5.64851e-14 -3.17903e-16)
(1.4555e-05 5.42305e-14 7.17426e-15)
(1.4555e-05 5.17822e-14 1.24829e-14)
(1.4555e-05 4.94494e-14 1.66459e-14)
(1.4555e-05 4.78271e-14 2.09713e-14)
(1.4555e-05 4.61411e-14 2.62335e-14)
(1.4555e-05 4.29579e-14 3.17488e-14)
(1.4555e-05 3.801e-14 3.54119e-14)
(1.4555e-05 3.19845e-14 3.70401e-14)
(1.4555e-05 2.64732e-14 3.75467e-14)
(1.4555e-05 2.16642e-14 3.76692e-14)
(1.4555e-05 1.77948e-14 3.67802e-14)
(1.4555e-05 1.40621e-14 3.48994e-14)
(1.4555e-05 1.0695e-14 3.17734e-14)
(1.4555e-05 7.98698e-15 2.88149e-14)
(1.4555e-05 7.06841e-15 2.6853e-14)
(1.4555e-05 7.59636e-15 2.64227e-14)
(1.4555e-05 8.20425e-15 2.56305e-14)
(1.4555e-05 6.95069e-15 2.2677e-14)
(1.4555e-05 3.65087e-15 1.72672e-14)
(1.4555e-05 -2.7619e-16 1.008e-14)
(1.4555e-05 -2.15284e-15 4.11119e-15)
(1.4555e-05 1.27222e-16 1.65784e-15)
(1.4555e-05 5.75722e-15 3.77358e-15)
(1.4555e-05 1.10077e-14 6.19886e-15)
(1.4555e-05 1.28896e-14 4.65391e-15)
(1.4555e-05 1.06125e-14 -7.57331e-16)
(1.4555e-05 5.78461e-15 -8.50702e-15)
(1.4555e-05 3.70259e-16 -1.60082e-14)
(1.4555e-05 -3.47599e-15 -2.17368e-14)
(1.4555e-05 -5.40724e-15 -2.45311e-14)
(1.4555e-05 -7.06172e-15 -2.70727e-14)
(1.4555e-05 -1.04128e-14 -3.02403e-14)
(1.4555e-05 -1.54927e-14 -3.48767e-14)
(1.4555e-05 -2.1214e-14 -3.94424e-14)
(1.4555e-05 -2.46397e-14 -4.20054e-14)
(1.4555e-05 -2.39658e-14 -4.10516e-14)
(1.4555e-05 -2.04303e-14 -3.56187e-14)
(1.4555e-05 -1.78438e-14 -2.85094e-14)
(1.4555e-05 -1.85377e-14 -2.55749e-14)
(1.4555e-05 -2.20577e-14 -2.75022e-14)
(1.4555e-05 -2.45667e-14 -3.06176e-14)
(1.4555e-05 -2.35644e-14 -3.23052e-14)
(1.4555e-05 -1.92669e-14 -2.90937e-14)
(1.4555e-05 -1.45576e-14 -2.33929e-14)
(1.4555e-05 -1.09485e-14 -1.89442e-14)
(1.4555e-05 -7.98127e-15 -1.64152e-14)
(1.4555e-05 -4.62049e-15 -1.51841e-14)
(1.4555e-05 1.10434e-15 -1.536e-14)
(1.4555e-05 8.6112e-15 -1.52925e-14)
(1.4555e-05 1.73045e-14 -1.57212e-14)
(1.4555e-05 2.50076e-14 -1.71127e-14)
(1.4555e-05 3.18671e-14 -1.99013e-14)
(1.4555e-05 3.64693e-14 -2.33224e-14)
(1.4555e-05 3.96048e-14 -2.71118e-14)
(1.4555e-05 4.03561e-14 -3.02082e-14)
(1.4555e-05 3.91747e-14 -3.20815e-14)
(1.4555e-05 3.53309e-14 -3.12086e-14)
(1.4555e-05 3.03711e-14 -2.65521e-14)
(1.4555e-05 2.40093e-14 -1.68415e-14)
(1.4555e-05 1.70945e-14 3.36452e-16)
(1.4555e-05 8.81223e-15 2.42621e-14)
(1.4555e-05 6.90229e-16 5.68101e-14)
(1.4555e-05 -1.13307e-14 9.82166e-14)
(1.4555e-05 -2.5014e-14 1.45563e-13)
(1.4555e-05 -3.12703e-14 1.92328e-13)
(1.4555e-05 -2.45837e-14 2.48396e-13)
(1.4555e-05 4.98064e-15 3.04702e-13)
(1.4555e-05 5.98338e-14 3.49065e-13)
(1.4555e-05 1.24645e-13 3.67229e-13)
(1.4555e-05 2.15774e-13 3.33062e-13)
(1.4555e-05 3.4458e-13 2.19733e-13)
(1.4555e-05 5.36493e-13 2.13085e-14)
(1.4555e-05 7.73659e-13 -2.58866e-13)
(1.4555e-05 1.02952e-12 -5.87888e-13)
(1.4555e-05 1.24115e-12 -7.19793e-13)
(1.4555e-05 1.39288e-12 -3.63601e-13)
(1.4555e-05 1.79282e-12 1.83839e-13)
(1.4555e-05 2.45954e-12 4.99123e-12)
(1.45549e-05 1.55334e-12 1.08381e-11)
(1.53512e-05 -7.83322e-13 3.73769e-13)
(1.53512e-05 -1.0772e-12 -6.56758e-12)
(1.53512e-05 3.93983e-13 2.46377e-12)
(1.53512e-05 -2.57707e-13 -4.25663e-13)
(1.53512e-05 -1.6624e-14 8.14608e-13)
(1.53512e-05 -1.42932e-13 4.81293e-13)
(1.53512e-05 -2.58766e-13 8.16793e-14)
(1.53512e-05 -2.94283e-13 4.93314e-14)
(1.53512e-05 -3.13549e-13 -1.12434e-13)
(1.53512e-05 -2.89274e-13 -1.69066e-13)
(1.53512e-05 -2.47062e-13 -1.69642e-13)
(1.53512e-05 -2.06257e-13 -1.66677e-13)
(1.53512e-05 -1.51367e-13 -1.48107e-13)
(1.53512e-05 -1.03263e-13 -1.23652e-13)
(1.53512e-05 -5.98081e-14 -9.59541e-14)
(1.53512e-05 -2.46615e-14 -7.05771e-14)
(1.53512e-05 6.81017e-15 -4.88789e-14)
(1.53512e-05 2.88678e-14 -3.2292e-14)
(1.53512e-05 4.54327e-14 -2.02341e-14)
(1.53512e-05 5.63512e-14 -1.09339e-14)
(1.53512e-05 6.21375e-14 -4.31865e-15)
(1.53512e-05 6.56437e-14 1.25719e-16)
(1.53512e-05 6.64512e-14 2.51378e-15)
(1.53512e-05 6.43921e-14 4.31492e-15)
(1.53512e-05 5.98804e-14 6.09276e-15)
(1.53512e-05 5.4892e-14 7.98051e-15)
(1.53512e-05 5.07738e-14 1.04615e-14)
(1.53512e-05 4.77611e-14 1.17159e-14)
(1.53512e-05 4.58e-14 1.28428e-14)
(1.53512e-05 4.38048e-14 1.28821e-14)
(1.53512e-05 4.21106e-14 1.3582e-14)
(1.53512e-05 3.98877e-14 1.37279e-14)
(1.53512e-05 3.81717e-14 1.48431e-14)
(1.53512e-05 3.61015e-14 1.5092e-14)
(1.53512e-05 3.45895e-14 1.5867e-14)
(1.53512e-05 3.18451e-14 1.54185e-14)
(1.53512e-05 2.93473e-14 1.56956e-14)
(1.53512e-05 2.70592e-14 1.46921e-14)
(1.53512e-05 2.76283e-14 1.32029e-14)
(1.53512e-05 2.98929e-14 9.65549e-15)
(1.53512e-05 3.25359e-14 5.72459e-15)
(1.53512e-05 3.04461e-14 1.24755e-15)
(1.53512e-05 2.3283e-14 -1.9138e-15)
(1.53512e-05 1.35881e-14 -3.52243e-15)
(1.53512e-05 5.3056e-15 -2.87668e-15)
(1.53512e-05 -1.27743e-15 -4.05833e-15)
(1.53512e-05 -5.35922e-15 -5.60761e-15)
(1.53512e-05 -8.70577e-15 -8.78735e-15)
(1.53512e-05 -1.16806e-14 -1.18259e-14)
(1.53512e-05 -1.58793e-14 -1.59077e-14)
(1.53512e-05 -2.02084e-14 -1.94331e-14)
(1.53512e-05 -2.40526e-14 -2.36824e-14)
(1.53512e-05 -2.4962e-14 -2.82092e-14)
(1.53512e-05 -2.38307e-14 -3.41267e-14)
(1.53512e-05 -2.18463e-14 -3.99983e-14)
(1.53512e-05 -2.36033e-14 -4.58386e-14)
(1.53512e-05 -2.9337e-14 -4.95643e-14)
(1.53512e-05 -3.55189e-14 -5.04819e-14)
(1.53512e-05 -3.78343e-14 -4.90649e-14)
(1.53512e-05 -3.51582e-14 -4.85114e-14)
(1.53512e-05 -2.9204e-14 -4.81262e-14)
(1.53512e-05 -2.51137e-14 -4.74375e-14)
(1.53512e-05 -2.4062e-14 -4.42233e-14)
(1.53512e-05 -2.32482e-14 -3.80792e-14)
(1.53512e-05 -1.88219e-14 -2.93882e-14)
(1.53512e-05 -1.04203e-14 -2.13807e-14)
(1.53512e-05 1.76167e-15 -1.4351e-14)
(1.53512e-05 1.37746e-14 -9.24597e-15)
(1.53512e-05 2.38813e-14 -5.1227e-15)
(1.53512e-05 3.18007e-14 -1.13919e-15)
(1.53512e-05 3.77791e-14 1.59215e-15)
(1.53512e-05 4.30609e-14 3.60591e-15)
(1.53512e-05 4.6388e-14 4.0628e-15)
(1.53512e-05 4.78602e-14 3.77004e-15)
(1.53512e-05 4.68432e-14 2.10754e-15)
(1.53512e-05 4.40717e-14 -4.30354e-17)
(1.53512e-05 3.89826e-14 -2.89236e-15)
(1.53512e-05 3.29026e-14 -4.59795e-15)
(1.53512e-05 2.55386e-14 -4.22086e-15)
(1.53512e-05 1.89281e-14 2.33986e-16)
(1.53512e-05 1.38892e-14 1.13979e-14)
(1.53512e-05 1.65439e-14 2.82259e-14)
(1.53512e-05 2.7892e-14 5.45528e-14)
(1.53512e-05 5.55333e-14 9.20519e-14)
(1.53512e-05 1.03173e-13 1.37594e-13)
(1.53512e-05 1.67438e-13 1.88518e-13)
(1.53512e-05 2.50533e-13 2.41802e-13)
(1.53512e-05 3.43809e-13 2.92789e-13)
(1.53512e-05 4.43396e-13 3.42755e-13)
(1.53512e-05 5.57345e-13 3.72787e-13)
(1.53512e-05 6.93749e-13 3.69706e-13)
(1.53512e-05 8.02064e-13 2.92078e-13)
(1.53512e-05 8.74618e-13 1.12425e-13)
(1.53512e-05 8.36971e-13 -1.80432e-13)
(1.53512e-05 7.28816e-13 -5.93148e-13)
(1.53512e-05 5.60834e-13 -8.98118e-13)
(1.53512e-05 6.97854e-13 -7.47713e-13)
(1.53512e-05 6.1153e-13 -5.81071e-13)
(1.53512e-05 8.5802e-13 3.9325e-12)
(1.53512e-05 2.50727e-12 9.93691e-12)
(2.58913e-05 -4.12177e-12 8.64653e-14)
(2.58913e-05 -3.85615e-12 -9.84741e-12)
(2.58914e-05 -8.31998e-13 3.28511e-12)
(2.58914e-05 -8.66185e-13 -1.12676e-12)
(2.58914e-05 -2.7915e-13 9.29109e-13)
(2.58914e-05 -1.10828e-13 5.83572e-13)
(2.58914e-05 -8.28884e-14 1.54207e-13)
(2.58914e-05 -4.29455e-14 1.18962e-13)
(2.58914e-05 -5.34569e-14 -1.24251e-13)
(2.58914e-05 -5.03269e-14 -2.17288e-13)
(2.58914e-05 -5.60777e-14 -2.36692e-13)
(2.58914e-05 -6.39564e-14 -2.37837e-13)
(2.58914e-05 -7.11442e-14 -2.22665e-13)
(2.58914e-05 -6.63641e-14 -1.88617e-13)
(2.58914e-05 -6.20364e-14 -1.50834e-13)
(2.58914e-05 -4.91475e-14 -1.0777e-13)
(2.58914e-05 -3.53503e-14 -7.28402e-14)
(2.58914e-05 -1.84551e-14 -4.24161e-14)
(2.58914e-05 -8.39199e-15 -1.95559e-14)
(2.58914e-05 3.78004e-16 -4.77428e-16)
(2.58914e-05 6.05341e-15 1.31949e-14)
(2.58914e-05 1.37459e-14 2.24507e-14)
(2.58914e-05 2.01277e-14 2.68835e-14)
(2.58914e-05 2.46077e-14 2.94683e-14)
(2.58914e-05 2.5905e-14 2.93653e-14)
(2.58914e-05 2.70887e-14 3.26819e-14)
(2.58914e-05 2.88495e-14 3.32629e-14)
(2.58914e-05 3.41628e-14 3.71316e-14)
(2.58914e-05 3.87792e-14 3.65675e-14)
(2.58914e-05 4.41279e-14 3.90527e-14)
(2.58914e-05 4.55952e-14 3.69325e-14)
(2.58914e-05 4.71089e-14 3.90253e-14)
(2.58914e-05 4.49295e-14 3.73078e-14)
(2.58914e-05 4.43154e-14 3.92911e-14)
(2.58914e-05 4.0758e-14 3.60357e-14)
(2.58914e-05 3.79799e-14 3.68103e-14)
(2.58914e-05 3.20062e-14 3.30826e-14)
(2.58914e-05 3.07685e-14 3.36625e-14)
(2.58914e-05 3.13833e-14 2.88353e-14)
(2.58914e-05 3.8471e-14 2.69563e-14)
(2.58914e-05 4.2093e-14 1.9875e-14)
(2.58914e-05 3.88129e-14 1.37937e-14)
(2.58914e-05 2.3477e-14 5.41087e-15)
(2.58914e-05 4.76237e-15 1.96533e-15)
(2.58914e-05 -1.22129e-14 -2.95602e-15)
(2.58914e-05 -2.04511e-14 -4.13426e-15)
(2.58914e-05 -2.54669e-14 -1.27072e-14)
(2.58914e-05 -2.63556e-14 -1.79212e-14)
(2.58914e-05 -2.96521e-14 -2.76263e-14)
(2.58914e-05 -3.26304e-14 -3.26676e-14)
(2.58914e-05 -3.85501e-14 -4.14829e-14)
(2.58914e-05 -3.9774e-14 -4.53495e-14)
(2.58914e-05 -3.82515e-14 -5.32773e-14)
(2.58914e-05 -2.97526e-14 -5.73589e-14)
(2.58914e-05 -2.26992e-14 -6.56897e-14)
(2.58914e-05 -2.08249e-14 -7.23556e-14)
(2.58914e-05 -2.82729e-14 -7.95557e-14)
(2.58914e-05 -3.67285e-14 -8.00703e-14)
(2.58914e-05 -4.00682e-14 -7.98907e-14)
(2.58914e-05 -3.1576e-14 -7.55209e-14)
(2.58914e-05 -1.9898e-14 -7.50477e-14)
(2.58914e-05 -1.24173e-14 -7.23792e-14)
(2.58914e-05 -1.52009e-14 -6.95316e-14)
(2.58914e-05 -2.04564e-14 -6.04424e-14)
(2.58914e-05 -2.20242e-14 -5.10857e-14)
(2.58914e-05 -1.27864e-14 -3.6239e-14)
(2.58914e-05 -5.38626e-16 -2.62831e-14)
(2.58914e-05 1.14084e-14 -1.70257e-14)
(2.58914e-05 1.5966e-14 -1.0312e-14)
(2.58914e-05 1.43372e-14 -4.2642e-15)
(2.58914e-05 9.17714e-15 -3.88668e-18)
(2.58914e-05 4.48052e-15 1.83081e-15)
(2.58914e-05 7.39e-16 1.30884e-15)
(2.58914e-05 -7.94292e-16 -6.62336e-16)
(2.58914e-05 3.55745e-17 -3.87071e-15)
(2.58914e-05 4.29662e-15 -7.60011e-15)
(2.58914e-05 1.24898e-14 -1.06301e-14)
(2.58914e-05 2.4383e-14 -1.19803e-14)
(2.58914e-05 4.04259e-14 -9.32339e-15)
(2.58914e-05 5.76192e-14 1.9334e-15)
(2.58914e-05 7.71742e-14 2.46159e-14)
(2.58914e-05 1.0062e-13 5.88857e-14)
(2.58914e-05 1.30428e-13 1.07614e-13)
(2.58914e-05 1.78546e-13 1.79049e-13)
(2.58914e-05 2.35243e-13 2.56208e-13)
(2.58914e-05 2.87705e-13 3.41575e-13)
(2.58914e-05 3.21029e-13 4.20593e-13)
(2.58914e-05 3.4853e-13 5.07615e-13)
(2.58914e-05 3.3625e-13 5.77678e-13)
(2.58914e-05 3.80089e-13 6.35034e-13)
(2.58914e-05 4.01005e-13 5.97507e-13)
(2.58914e-05 4.30453e-13 4.72279e-13)
(2.58914e-05 4.14621e-13 1.9517e-13)
(2.58914e-05 4.09943e-13 -1.75472e-13)
(2.58914e-05 5.0733e-13 -6.23031e-13)
(2.58914e-05 7.67557e-13 -8.11873e-13)
(2.58914e-05 1.32158e-12 -3.15475e-13)
(2.58914e-05 2.47022e-12 1.02795e-13)
(2.58913e-05 5.3824e-12 6.4215e-12)
(2.58913e-05 7.64578e-12 1.44481e-11)
(3.16188e-05 -4.09941e-12 -7.93457e-14)
(3.16189e-05 -4.66725e-12 -1.04473e-11)
(3.16189e-05 -1.36423e-12 3.36157e-12)
(3.16189e-05 -1.34229e-12 -1.41137e-12)
(3.16189e-05 -6.13684e-13 1.20262e-12)
(3.16189e-05 -4.56589e-13 7.50841e-13)
(3.16189e-05 -3.65701e-13 2.97233e-13)
(3.16189e-05 -2.57467e-13 2.45053e-13)
(3.16189e-05 -1.89105e-13 -5.3678e-14)
(3.16189e-05 -1.45366e-13 -1.91342e-13)
(3.16189e-05 -9.33396e-14 -2.26833e-13)
(3.16189e-05 -7.71164e-14 -2.46094e-13)
(3.16189e-05 -7.95235e-14 -2.21923e-13)
(3.16189e-05 -8.47997e-14 -2.02e-13)
(3.16189e-05 -8.55965e-14 -1.63465e-13)
(3.16189e-05 -7.81367e-14 -1.22353e-13)
(3.16189e-05 -6.12199e-14 -7.94315e-14)
(3.16189e-05 -4.88355e-14 -5.30388e-14)
(3.16189e-05 -4.1552e-14 -2.24963e-14)
(3.16189e-05 -4.00713e-14 3.8066e-16)
(3.16189e-05 -3.70958e-14 1.87863e-14)
(3.16189e-05 -3.31022e-14 2.93677e-14)
(3.16189e-05 -2.85516e-14 3.55742e-14)
(3.16189e-05 -2.62962e-14 3.73552e-14)
(3.16189e-05 -2.52078e-14 4.29227e-14)
(3.16189e-05 -2.43646e-14 4.50827e-14)
(3.16189e-05 -1.85877e-14 5.14012e-14)
(3.16189e-05 -9.92313e-15 5.17056e-14)
(3.16189e-05 2.6888e-15 5.66432e-14)
(3.16189e-05 1.21016e-14 5.31134e-14)
(3.16189e-05 2.03027e-14 5.5507e-14)
(3.16189e-05 2.2625e-14 5.12522e-14)
(3.16189e-05 2.40456e-14 5.45629e-14)
(3.16189e-05 2.14391e-14 5.05017e-14)
(3.16189e-05 1.93504e-14 5.26945e-14)
(3.16189e-05 1.33834e-14 4.73041e-14)
(3.16189e-05 9.32864e-15 4.93006e-14)
(3.16189e-05 7.27079e-15 4.42266e-14)
(3.16189e-05 1.3724e-14 4.42698e-14)
(3.16189e-05 2.26438e-14 3.48269e-14)
(3.16189e-05 3.0168e-14 2.89697e-14)
(3.16189e-05 2.53682e-14 1.70951e-14)
(3.16189e-05 8.91691e-15 1.09338e-14)
(3.16189e-05 -1.36476e-14 4.47404e-15)
(3.16189e-05 -2.8989e-14 5.70466e-15)
(3.16189e-05 -3.65305e-14 -2.62315e-15)
(3.16189e-05 -3.44945e-14 -9.34005e-15)
(3.16189e-05 -3.32955e-14 -2.48798e-14)
(3.16189e-05 -3.13952e-14 -3.2531e-14)
(3.16189e-05 -3.46955e-14 -4.54827e-14)
(3.16189e-05 -3.65535e-14 -4.93925e-14)
(3.16189e-05 -3.65621e-14 -5.92204e-14)
(3.16189e-05 -2.80629e-14 -6.22514e-14)
(3.16189e-05 -1.61479e-14 -7.26256e-14)
(3.16189e-05 -4.14614e-15 -7.95965e-14)
(3.16189e-05 -1.85497e-15 -9.06153e-14)
(3.16189e-05 -8.74228e-15 -9.50078e-14)
(3.16189e-05 -1.84245e-14 -9.73298e-14)
(3.16189e-05 -1.79749e-14 -9.07278e-14)
(3.16189e-05 -6.10505e-15 -8.98184e-14)
(3.16189e-05 1.12496e-14 -8.71422e-14)
(3.16189e-05 1.95269e-14 -8.88809e-14)
(3.16189e-05 1.55776e-14 -8.40873e-14)
(3.16189e-05 5.42928e-15 -7.83249e-14)
(3.16189e-05 3.29154e-15 -6.33422e-14)
(3.16189e-05 1.1661e-14 -5.21419e-14)
(3.16189e-05 2.74502e-14 -4.00775e-14)
(3.16189e-05 4.00055e-14 -3.83933e-14)
(3.16189e-05 4.47634e-14 -3.23885e-14)
(3.16189e-05 4.12848e-14 -2.5558e-14)
(3.16189e-05 3.40902e-14 -2.01545e-14)
(3.16189e-05 2.63248e-14 -1.97403e-14)
(3.16189e-05 2.10814e-14 -2.21814e-14)
(3.16189e-05 1.88597e-14 -2.64906e-14)
(3.16189e-05 2.0591e-14 -3.13121e-14)
(3.16189e-05 2.61773e-14 -3.54158e-14)
(3.16189e-05 3.60401e-14 -3.80405e-14)
(3.16189e-05 5.02514e-14 -3.67379e-14)
(3.16189e-05 6.65935e-14 -3.31403e-14)
(3.16189e-05 8.26188e-14 -1.13173e-14)
(3.16189e-05 9.48868e-14 2.07581e-14)
(3.16189e-05 1.05944e-13 6.57673e-14)
(3.16189e-05 1.3194e-13 1.33404e-13)
(3.16189e-05 1.73135e-13 2.13061e-13)
(3.16189e-05 2.28104e-13 3.08027e-13)
(3.16189e-05 2.72012e-13 3.98977e-13)
(3.16189e-05 2.9769e-13 4.91304e-13)
(3.16189e-05 3.07616e-13 5.72779e-13)
(3.16189e-05 3.33158e-13 6.71749e-13)
(3.16189e-05 3.83752e-13 6.81883e-13)
(3.16189e-05 4.51199e-13 6.38963e-13)
(3.16189e-05 4.97232e-13 4.32185e-13)
(3.16189e-05 5.05907e-13 1.04642e-13)
(3.16189e-05 5.46393e-13 -3.36812e-13)
(3.16189e-05 6.44484e-13 -8.35139e-13)
(3.16189e-05 9.08933e-13 -1.02562e-12)
(3.16189e-05 1.55684e-12 -3.46463e-13)
(3.16189e-05 2.80104e-12 2.59752e-13)
(3.16189e-05 6.25589e-12 7.16483e-12)
(3.16188e-05 8.88547e-12 1.51007e-11)
(3.84445e-05 -4.82622e-13 -1.46885e-12)
(3.84445e-05 -6.40931e-12 -1.23778e-11)
(3.84445e-05 4.6243e-13 2.75418e-12)
(3.84445e-05 -1.02637e-12 -2.03358e-12)
(3.84445e-05 -3.04193e-13 1.17928e-12)
(3.84445e-05 -4.38791e-13 8.07148e-13)
(3.84445e-05 -5.52455e-13 3.61201e-13)
(3.84445e-05 -4.3221e-13 3.34357e-13)
(3.84445e-05 -3.89914e-13 -1.48056e-14)
(3.84445e-05 -3.26174e-13 -1.60507e-13)
(3.84445e-05 -2.45999e-13 -2.23215e-13)
(3.84445e-05 -1.97332e-13 -2.44359e-13)
(3.84445e-05 -1.65315e-13 -2.3007e-13)
(3.84445e-05 -1.55341e-13 -1.88006e-13)
(3.84445e-05 -1.37763e-13 -1.40577e-13)
(3.84445e-05 -1.18674e-13 -8.5019e-14)
(3.84445e-05 -9.32012e-14 -3.85645e-14)
(3.84445e-05 -8.11361e-14 4.02872e-15)
(3.84445e-05 -7.36758e-14 4.03323e-14)
(3.84445e-05 -7.66887e-14 7.171e-14)
(3.84445e-05 -8.05778e-14 9.60846e-14)
(3.84445e-05 -8.63937e-14 1.13553e-13)
(3.84445e-05 -9.25983e-14 1.22264e-13)
(3.84445e-05 -9.89378e-14 1.29576e-13)
(3.84445e-05 -1.04092e-13 1.35883e-13)
(3.84445e-05 -1.04354e-13 1.41873e-13)
(3.84445e-05 -9.86988e-14 1.42776e-13)
(3.84445e-05 -8.42332e-14 1.42476e-13)
(3.84445e-05 -6.73202e-14 1.3294e-13)
(3.84445e-05 -5.08683e-14 1.26625e-13)
(3.84445e-05 -3.9379e-14 1.16691e-13)
(3.84445e-05 -3.25233e-14 1.13502e-13)
(3.84445e-05 -3.04472e-14 1.05585e-13)
(3.84445e-05 -3.10998e-14 1.03931e-13)
(3.84445e-05 -3.41046e-14 9.69206e-14)
(3.84445e-05 -3.86168e-14 9.57172e-14)
(3.84445e-05 -4.03592e-14 9.08994e-14)
(3.84445e-05 -3.52393e-14 8.90914e-14)
(3.84445e-05 -2.42883e-14 7.81678e-14)
(3.84445e-05 -1.15829e-14 6.70329e-14)
(3.84445e-05 -2.11265e-15 4.81142e-14)
(3.84445e-05 -3.9624e-15 3.28509e-14)
(3.84445e-05 -1.60573e-14 2.17252e-14)
(3.84445e-05 -3.0308e-14 2.13782e-14)
(3.84445e-05 -3.80338e-14 1.7569e-14)
(3.84445e-05 -3.68312e-14 1.09194e-14)
(3.84445e-05 -3.159e-14 -6.19439e-15)
(3.84445e-05 -2.62421e-14 -2.30265e-14)
(3.84445e-05 -2.35954e-14 -4.40148e-14)
(3.84445e-05 -2.37304e-14 -5.70479e-14)
(3.84445e-05 -2.35188e-14 -7.08298e-14)
(3.84445e-05 -1.79326e-14 -7.9069e-14)
(3.84445e-05 -7.056e-15 -9.41819e-14)
(3.84445e-05 6.55199e-15 -1.08165e-13)
(3.84445e-05 1.78178e-14 -1.26406e-13)
(3.84445e-05 2.06361e-14 -1.39374e-13)
(3.84445e-05 1.52674e-14 -1.45846e-13)
(3.84445e-05 1.03122e-14 -1.40337e-13)
(3.84445e-05 1.40049e-14 -1.348e-13)
(3.84445e-05 2.89119e-14 -1.32306e-13)
(3.84445e-05 4.57784e-14 -1.40374e-13)
(3.84445e-05 5.29996e-14 -1.46578e-13)
(3.84445e-05 4.84567e-14 -1.45561e-13)
(3.84445e-05 4.06381e-14 -1.30171e-13)
(3.84445e-05 4.08085e-14 -1.1103e-13)
(3.84445e-05 5.21603e-14 -9.27144e-14)
(3.84445e-05 7.12395e-14 -8.34268e-14)
(3.84445e-05 8.86333e-14 -7.775e-14)
(3.84445e-05 1.00251e-13 -7.35868e-14)
(3.84445e-05 1.06138e-13 -6.80049e-14)
(3.84445e-05 1.08815e-13 -6.29709e-14)
(3.84445e-05 1.10408e-13 -6.0531e-14)
(3.84445e-05 1.11914e-13 -6.18826e-14)
(3.84445e-05 1.14124e-13 -6.56198e-14)
(3.84445e-05 1.16788e-13 -7.09886e-14)
(3.84445e-05 1.19795e-13 -7.61822e-14)
(3.84445e-05 1.21977e-13 -7.94404e-14)
(3.84445e-05 1.24199e-13 -7.92017e-14)
(3.84445e-05 1.23825e-13 -7.1805e-14)
(3.84445e-05 1.21266e-13 -5.38716e-14)
(3.84445e-05 1.10367e-13 -1.88427e-14)
(3.84445e-05 9.84177e-14 3.90457e-14)
(3.84445e-05 9.92351e-14 1.14364e-13)
(3.84445e-05 1.17207e-13 2.10771e-13)
(3.84445e-05 1.46144e-13 3.12341e-13)
(3.84445e-05 1.75929e-13 4.26009e-13)
(3.84445e-05 2.02161e-13 5.37509e-13)
(3.84445e-05 2.36052e-13 6.65945e-13)
(3.84445e-05 3.36215e-13 7.7176e-13)
(3.84445e-05 4.16093e-13 8.43714e-13)
(3.84445e-05 5.06424e-13 7.91057e-13)
(3.84445e-05 5.28404e-13 6.27467e-13)
(3.84445e-05 5.11345e-13 3.25087e-13)
(3.84445e-05 3.9767e-13 -4.66951e-14)
(3.84445e-05 1.20545e-13 -3.83473e-13)
(3.84445e-05 -2.09084e-13 -2.36784e-13)
(3.84445e-05 -2.61097e-13 9.30207e-13)
(3.84445e-05 2.99984e-13 2.11141e-12)
(3.84445e-05 5.08763e-12 1.00827e-11)
(3.84444e-05 9.3539e-12 1.83194e-11)
(5.728e-05 -6.25582e-12 -1.83208e-11)
(5.728e-05 -3.32522e-12 -1.77007e-11)
(5.728e-05 1.76672e-13 -5.0577e-12)
(5.728e-05 1.02185e-12 -5.48204e-12)
(5.728e-05 1.36421e-12 -2.35581e-12)
(5.728e-05 1.53129e-12 -1.06426e-12)
(5.728e-05 1.72136e-12 -2.31834e-13)
(5.728e-05 1.84192e-12 4.03775e-13)
(5.728e-05 1.74653e-12 4.0664e-13)
(5.728e-05 1.58403e-12 3.14188e-13)
(5.728e-05 1.25669e-12 1.25556e-13)
(5.728e-05 9.31983e-13 1.53255e-15)
(5.728e-05 5.88416e-13 -7.96077e-14)
(5.728e-05 3.0282e-13 -7.30576e-14)
(5.728e-05 4.99926e-14 -7.18284e-14)
(5.728e-05 -1.36212e-13 -4.70661e-14)
(5.728e-05 -2.79339e-13 -3.02524e-14)
(5.728e-05 -3.64449e-13 1.31954e-14)
(5.728e-05 -4.138e-13 4.46433e-14)
(5.728e-05 -4.24948e-13 8.39185e-14)
(5.728e-05 -4.18346e-13 1.14941e-13)
(5.728e-05 -3.947e-13 1.45417e-13)
(5.728e-05 -3.64025e-13 1.65234e-13)
(5.728e-05 -3.27098e-13 1.81145e-13)
(5.728e-05 -2.8977e-13 1.88206e-13)
(5.728e-05 -2.51803e-13 1.92021e-13)
(5.728e-05 -2.12891e-13 1.95474e-13)
(5.728e-05 -1.75117e-13 1.94588e-13)
(5.728e-05 -1.40281e-13 1.88343e-13)
(5.728e-05 -1.10271e-13 1.79045e-13)
(5.728e-05 -8.84788e-14 1.67133e-13)
(5.728e-05 -7.32809e-14 1.57278e-13)
(5.728e-05 -6.82606e-14 1.45859e-13)
(5.728e-05 -6.80088e-14 1.3869e-13)
(5.728e-05 -7.48304e-14 1.29671e-13)
(5.728e-05 -7.88956e-14 1.25264e-13)
(5.728e-05 -8.18449e-14 1.16864e-13)
(5.728e-05 -7.63797e-14 1.08317e-13)
(5.728e-05 -7.38968e-14 9.08323e-14)
(5.728e-05 -7.00496e-14 7.42048e-14)
(5.728e-05 -7.17024e-14 5.10969e-14)
(5.728e-05 -7.23132e-14 3.32086e-14)
(5.728e-05 -7.17484e-14 2.10107e-14)
(5.728e-05 -6.26224e-14 2.0611e-14)
(5.728e-05 -5.14851e-14 2.09614e-14)
(5.728e-05 -3.85428e-14 1.88926e-14)
(5.728e-05 -3.50207e-14 5.06978e-15)
(5.728e-05 -3.18251e-14 -1.17973e-14)
(5.728e-05 -3.25617e-14 -3.32003e-14)
(5.728e-05 -2.69742e-14 -4.8922e-14)
(5.728e-05 -1.62611e-14 -6.40775e-14)
(5.728e-05 4.61089e-15 -7.6344e-14)
(5.728e-05 2.7102e-14 -9.2848e-14)
(5.728e-05 5.29316e-14 -1.07993e-13)
(5.728e-05 7.67207e-14 -1.22908e-13)
(5.728e-05 1.00406e-13 -1.3505e-13)
(5.728e-05 1.26098e-13 -1.41275e-13)
(5.728e-05 1.55072e-13 -1.37437e-13)
(5.728e-05 1.83027e-13 -1.27479e-13)
(5.728e-05 2.04342e-13 -1.19987e-13)