/*--------------------------------*- C++ -*----------------------------------*\
| =========                 |                                                 |
| \\      /  F ield         | OpenFOAM: The Open Source CFD Toolbox           |
|  \\    /   O peration     | Version:  2412                                  |
|   \\  /    A nd           | Website:  www.openfoam.com                      |
|    \\/     M anipulation  |                                                 |
\*---------------------------------------------------------------------------*/
FoamFile
{
    version     2.0;
    format      ascii;
    arch        "LSB;label=32;scalar=64";
    class       volScalarField;
    location    "200";
    object      p;
}
// * * * * * * * * * * * * * * * * * * * * * * * * * * * * * * * * * * * * * //

dimensions      [0 2 -2 0 0 0 0];

internalField   nonuniform List<scalar> 
283461
(
0.000942462
0.000942461
0.000942485
0.00094252
0.000942559
0.000942595
0.000107548
0.000134117
0.000141005
0.000141215
0.000138733
0.000134861
0.000130233
0.000125218
0.000119967
0.000114528
0.00010899
0.000103406
9.78215e-05
9.22767e-05
8.67127e-05
8.10598e-05
7.53896e-05
6.98575e-05
6.46097e-05
5.96585e-05
5.50129e-05
5.07177e-05
4.67527e-05
4.30938e-05
3.97078e-05
3.65672e-05
3.3654e-05
3.09509e-05
2.84474e-05
2.61402e-05
2.40174e-05
2.20656e-05
2.02721e-05
1.86273e-05
1.71232e-05
1.57535e-05
1.45129e-05
1.3397e-05
1.24019e-05
1.1524e-05
1.07601e-05
1.01071e-05
9.55976e-06
9.10743e-06
8.71731e-06
8.32303e-06
7.73651e-06
6.63657e-06
4.16344e-08
0.000942443
0.00094245
0.000942458
0.000942481
0.000942521
0.000942572
0.000942639
0.000942747
0.000942808
0.000942853
0.000942878
0.000942853
0.000942858
0.000943036
0.000943288
0.000943872
0.000249385
0.000242355
0.000225946
0.000164164
0.000156687
0.000151501
0.000146529
0.000141571
0.000136463
0.000131207
0.000125848
0.000120408
0.000114852
0.000109252
0.000103608
9.79236e-05
9.22173e-05
8.65165e-05
8.08509e-05
7.52625e-05
6.98071e-05
6.4563e-05
5.95973e-05
5.49342e-05
5.06284e-05
4.66598e-05
4.30007e-05
3.96147e-05
3.64734e-05
3.35581e-05
3.08505e-05
2.83418e-05
2.60324e-05
2.39097e-05
2.19586e-05
2.01657e-05
1.85205e-05
1.7015e-05
1.56428e-05
1.43981e-05
1.32758e-05
1.2271e-05
1.13783e-05
1.05916e-05
9.90268e-06
9.29747e-06
8.74981e-06
8.20211e-06
7.54503e-06
6.56599e-06
4.85487e-06
-1.12302e-08
0.000942441
0.000942441
0.000942447
0.000942468
0.000942505
0.000942553
0.000942612
0.000942688
0.000942746
0.000942784
0.000942808
0.000942798
0.00094282
0.000942958
0.000943179
0.000943635
0.000942778
0.000941988
0.000942546
0.000944201
0.000935285
0.000936644
0.000937218
0.00093979
0.000284152
0.000257918
0.000237747
0.00021717
0.000182199
0.000169369
0.000159684
0.000151811
0.000144929
0.000138549
0.000132601
0.00012679
0.000120943
0.000115156
0.000109435
0.000103705
9.79623e-05
9.2223e-05
8.65043e-05
8.08283e-05
7.52218e-05
6.9748e-05
6.44879e-05
5.94911e-05
5.47896e-05
5.04635e-05
4.64864e-05
4.28257e-05
3.94391e-05
3.62964e-05
3.3378e-05
3.06619e-05
2.81425e-05
2.58298e-05
2.37082e-05
2.17592e-05
1.99677e-05
1.83224e-05
1.6815e-05
1.54392e-05
1.41882e-05
1.30567e-05
1.2038e-05
1.1125e-05
1.0308e-05
9.57389e-06
8.90063e-06
8.25162e-06
7.55809e-06
6.70846e-06
5.5241e-06
3.71346e-06
8.59997e-08
0.000942437
0.00094243
0.000942428
0.000942442
0.000942475
0.000942518
0.000942567
0.000942623
0.000942668
0.000942698
0.000942715
0.00094271
0.000942716
0.000942774
0.000942818
0.000942903
0.000942354
0.000941826
0.000941834
0.000942249
0.00094026
0.000937768
0.000937357
0.000936952
0.000937718
0.000935341
0.000932394
0.000930183
0.000926774
0.000923669
0.000922773
0.000919635
0.000923567
0.000842116
0.000856578
0.000346753
0.000319797
0.000288318
0.000249075
0.000224575
0.000197354
0.000180808
0.000167927
0.000157555
0.000148819
0.000141149
0.000134223
0.000127718
0.000121487
0.000115525
0.00010969
0.000103863
9.80233e-05
9.22031e-05
8.64408e-05
8.07624e-05
7.51582e-05
6.96762e-05
6.4405e-05
5.9353e-05
5.45833e-05
5.02208e-05
4.62261e-05
4.25593e-05
3.917e-05
3.60257e-05
3.31052e-05
3.03759e-05
2.78395e-05
2.55229e-05
2.34042e-05
2.14589e-05
1.967e-05
1.80249e-05
1.6515e-05
1.51347e-05
1.3876e-05
1.2733e-05
1.16981e-05
1.07626e-05
9.91402e-06
9.13654e-06
8.40403e-06
7.67872e-06
6.89369e-06
5.95786e-06
4.74282e-06
3.06444e-06
3.9459e-07
0.000942412
0.000942392
0.000942398
0.000942432
0.000942473
0.000942518
0.000942563
0.0009426
0.000942624
0.000942634
0.000942626
0.00094261
0.000942601
0.000942562
0.000942499
0.000942114
0.000941692
0.000941466
0.000941288
0.000939944
0.000938306
0.000937461
0.000936647
0.000936302
0.000934439
0.000931831
0.000929339
0.000925939
0.000922058
0.000918675
0.000913219
0.000909456
0.000893707
0.000875175
0.000854879
0.000851633
0.000842734
0.000867173
0.000418495
0.000390681
0.00035955
0.00032207
0.000273369
0.000242804
0.000214325
0.000192992
0.000176559
0.000163554
0.000152901
0.000143824
0.000135793
0.000128596
0.000121979
0.000115777
0.00010986
0.000103957
9.80235e-05
9.21218e-05
8.63254e-05
8.0671e-05
7.50921e-05
6.96234e-05
6.43533e-05
5.92147e-05
5.43421e-05
4.9915e-05
4.58834e-05
4.21985e-05
3.88008e-05
3.56553e-05
3.27383e-05
2.99926e-05
2.74333e-05
2.51146e-05
2.30022e-05
2.10622e-05
1.92768e-05
1.76325e-05
1.612e-05
1.47353e-05
1.34687e-05
1.23144e-05
1.12644e-05
1.03099e-05
9.43544e-06
8.62557e-06
7.85208e-06
7.08126e-06
6.25692e-06
5.30351e-06
4.14092e-06
2.67915e-06
7.17264e-07
0.000942318
0.000942316
0.000942368
0.000942419
0.000942468
0.000942513
0.000942548
0.000942568
0.000942572
0.000942554
0.000942517
0.000942462
0.000942365
0.000942216
0.000941896
0.000941503
0.000941117
0.000940642
0.000939666
0.000938478
0.000937471
0.000936394
0.00093535
0.000933604
0.000931306
0.000928736
0.000925395
0.000921388
0.000917137
0.000910949
0.000904162
0.000891016
0.000873803
0.000854657
0.000838655
0.000814287
0.000792514
0.000709684
0.000568701
0.000483814
0.000417177
0.000359305
0.000301859
0.00026488
0.000232212
0.000205698
0.000185354
0.000169631
0.000157018
0.000146438
0.000137203
0.000129226
0.000122182
0.000115749
0.000109863
0.000103943
9.79209e-05
9.19313e-05
8.6116e-05
8.05339e-05
7.50152e-05
6.95655e-05
6.42807e-05
5.90474e-05
5.40672e-05
4.9533e-05
4.54401e-05
4.17229e-05
3.83101e-05
3.5167e-05
3.22708e-05
2.951e-05
2.69253e-05
2.46088e-05
2.25067e-05
2.05722e-05
1.87908e-05
1.7148e-05
1.56331e-05
1.42448e-05
1.29711e-05
1.18072e-05
1.07463e-05
9.78062e-06
8.88991e-06
8.06318e-06
7.27903e-06
6.49336e-06
5.67244e-06
4.75543e-06
3.69324e-06
2.46252e-06
9.96282e-07
0.000942157
0.000942264
0.00094235
0.000942417
0.000942472
0.000942512
0.000942535
0.000942536
0.000942511
0.000942457
0.000942372
0.000942239
0.000942044
0.000941736
0.000941345
0.000940889
0.000940316
0.000939469
0.000938444
0.00093738
0.000936187
0.000934857
0.000933079
0.000930829
0.000928153
0.000924775
0.000920605
0.000915681
0.000909129
0.000901048
0.00088914
0.000874015
0.000855094
0.000833988
0.000806719
0.000772246
0.000704199
0.000605008
0.000523474
0.000452774
0.000389178
0.000328758
0.000286014
0.000249054
0.000218287
0.000193937
0.000175681
0.000161226
0.000149013
0.000138268
0.000129347
0.000121832
0.000115121
0.000109492
0.000103703
9.76244e-05
9.15493e-05
8.57777e-05
8.03825e-05
7.50255e-05
6.9598e-05
6.41934e-05
5.88618e-05
5.38264e-05
4.91256e-05
4.49292e-05
4.11461e-05
3.76901e-05
3.45359e-05
3.16772e-05
2.89116e-05
2.6312e-05
2.40081e-05
2.19218e-05
1.99915e-05
1.82141e-05
1.65738e-05
1.50562e-05
1.36662e-05
1.23867e-05
1.12153e-05
1.0149e-05
9.18277e-06
8.29734e-06
7.47735e-06
6.69876e-06
5.9317e-06
5.14748e-06
4.3047e-06
3.3662e-06
2.35858e-06
1.27057e-06
0.000942014
0.000942118
0.000942258
0.00094236
0.000942438
0.000942494
0.000942527
0.000942531
0.000942504
0.000942439
0.000942334
0.000942178
0.000941956
0.000941644
0.000941245
0.000940757
0.000940148
0.00093935
0.00093839
0.000937308
0.00093606
0.000934609
0.000932798
0.000930551
0.000927826
0.000924439
0.000920235
0.000915088
0.000908458
0.000900044
0.000888645
0.000874005
0.000854908
0.000831562
0.000801817
0.000763427
0.000706971
0.000629367
0.000555551
0.000485222
0.000420718
0.000360364
0.000312196
0.000268819
0.000232025
0.000202509
0.000181982
0.000165729
0.000151656
0.000138827
0.000128719
0.000120842
0.00011385
0.000108803
0.000103274
9.71404e-05
9.0942e-05
8.5249e-05
8.01732e-05
7.50895e-05
6.96772e-05
6.41139e-05
5.86577e-05
5.35223e-05
4.86155e-05
4.42818e-05
4.0414e-05
3.68867e-05
3.37042e-05
3.09092e-05
2.817e-05
2.55963e-05
2.33235e-05
2.12551e-05
1.93207e-05
1.7543e-05
1.59053e-05
1.43862e-05
1.29983e-05
1.17143e-05
1.05302e-05
9.47626e-06
8.53972e-06
7.66161e-06
6.86002e-06
6.11486e-06
5.39881e-06
4.67905e-06
3.92718e-06
3.11878e-06
2.28132e-06
1.53963e-06
0.000941836
0.000942108
0.000942279
0.0009424
0.000942487
0.00094254
0.000942556
0.000942532
0.000942464
0.000942349
0.000942177
0.00094194
0.000941621
0.000941214
0.000940711
0.00094009
0.000939316
0.000938387
0.000937306
0.000936039
0.000934544
0.000932722
0.000930493
0.000927782
0.000924442
0.000920308
0.000915192
0.000908695
0.000900402
0.000889476
0.000875263
0.000856105
0.000831976
0.00080136
0.000763619
0.000713603
0.000648446
0.00058134
0.000510956
0.000445874
0.000383193
0.000332146
0.000284001
0.000243509
0.000212298
0.000189092
0.000170941
0.000154488
0.00013843
0.000126762
0.000119025
0.000111984
0.000107782
0.000102446
9.61756e-05
8.98177e-05
8.44158e-05
7.99127e-05
7.53197e-05
6.99629e-05
6.4317e-05
5.88228e-05
5.32999e-05
4.79043e-05
4.34053e-05
3.94929e-05
3.58826e-05
3.26623e-05
2.9932e-05
2.72729e-05
2.481e-05
2.2586e-05
2.05203e-05
1.85601e-05
1.67745e-05
1.51409e-05
1.36233e-05
1.2242e-05
1.09559e-05
9.79954e-06
8.7647e-06
7.83067e-06
6.99012e-06
6.2377e-06
5.54515e-06
4.8925e-06
4.25462e-06
3.60581e-06
2.9244e-06
2.26031e-06
1.76036e-06
0.000941618
0.000941888
0.000942144
0.000942338
0.000942476
0.000942565
0.000942604
0.000942592
0.000942528
0.000942409
0.000942231
0.000941986
0.000941662
0.000941252
0.000940745
0.000940124
0.000939367
0.000938461
0.000937394
0.000936135
0.00093464
0.000932839
0.000930657
0.00092801
0.000924773
0.000920785
0.00091585
0.000909634
0.000901703
0.000891371
0.000877785
0.000858922
0.000835944
0.000805614
0.000768922
0.000722173
0.000666343
0.000606242
0.00053229
0.000465508
0.000400274
0.000349201
0.000299086
0.000254154
0.000221491
0.000197135
0.000178636
0.000158452
0.000137499
0.000124165
0.000115904
0.000108116
0.000105045
0.000101024
9.52704e-05
8.92518e-05
8.47191e-05
8.0444e-05
7.62131e-05
7.05942e-05
6.45332e-05
5.88943e-05
5.27575e-05
4.67313e-05
4.23928e-05
3.86037e-05
3.47592e-05
3.14416e-05
2.88e-05
2.62244e-05
2.39089e-05
2.17732e-05
1.96961e-05
1.76926e-05
1.58946e-05
1.42704e-05
1.27624e-05
1.14034e-05
1.01172e-05
8.98239e-06
7.98727e-06
7.09698e-06
6.31161e-06
5.61714e-06
4.99455e-06
4.42078e-06
3.87451e-06
3.3314e-06
2.77039e-06
2.28954e-06
1.91894e-06
0.0009414
0.000941871
0.000942218
0.000942441
0.00094259
0.000942666
0.000942677
0.000942624
0.000942509
0.000942331
0.000942084
0.00094176
0.000941352
0.000940849
0.000940237
0.000939498
0.000938618
0.000937577
0.000936345
0.000934882
0.000933132
0.000931025
0.000928481
0.00092539
0.000921602
0.000916929
0.000911083
0.000903659
0.000894087
0.000881541
0.000864412
0.000843832
0.000813462
0.000775669
0.000733159
0.00068746
0.000636239
0.000553665
0.000482189
0.000405398
0.000343713
0.000295585
0.000255023
0.000223862
0.000201263
0.000186836
0.00016556
0.000138604
0.000114857
0.000109737
0.000105534
0.000103773
0.000100785
9.44002e-05
8.79285e-05
8.4439e-05
8.08463e-05
7.75733e-05
7.1477e-05
6.4536e-05
5.88622e-05
5.18013e-05
4.5296e-05
4.1858e-05
3.78337e-05
3.3461e-05
3.00546e-05
2.74766e-05
2.49552e-05
2.28333e-05
2.08118e-05
1.87357e-05
1.66784e-05
1.48518e-05
1.32541e-05
1.1777e-05
1.04511e-05
9.1964e-06
8.1166e-06
7.15884e-06
6.32969e-06
5.62335e-06
5.00932e-06
4.47229e-06
3.98901e-06
3.53951e-06
3.10016e-06
2.64895e-06
2.30571e-06
2.06696e-06
0.000941081
0.00094142
0.000942003
0.000942366
0.000942603
0.000942734
0.000942778
0.000942745
0.000942642
0.00094247
0.000942227
0.000941908
0.000941507
0.000941015
0.000940419
0.000939704
0.000938855
0.000937851
0.000936662
0.000935254
0.000933577
0.000931571
0.000929161
0.000926247
0.00092269
0.000918315
0.000912862
0.000905965
0.000897139
0.000885478
0.000870258
0.000852291
0.000825811
0.000789482
0.000753636
0.000724769
0.000698082
0.000616876
0.000526641
0.000410414
0.00034217
0.000293076
0.000253307
0.000223981
0.0002054
0.000201054
0.000102712
0.000103474
0.000103237
0.000102401
9.92654e-05
9.3582e-05
8.79964e-05
8.44357e-05
8.05557e-05
7.68664e-05
7.05686e-05
6.3913e-05
5.93412e-05
5.25023e-05
4.56646e-05
4.16785e-05
3.68069e-05
3.19672e-05
2.85757e-05
2.59209e-05
2.35315e-05
2.16917e-05
1.97318e-05
1.75519e-05
1.53789e-05
1.35669e-05
1.20747e-05
1.06813e-05
9.41106e-06
8.19035e-06
7.17686e-06
6.30387e-06
5.56678e-06
4.95461e-06
4.4338e-06
3.99197e-06
3.60503e-06
3.25333e-06
2.91453e-06
2.56814e-06
2.33857e-06
2.25985e-06
0.000940257
0.000941377
0.00094215
0.000942578
0.000942795
0.000942888
0.000942884
0.000942799
0.000942639
0.000942405
0.000942097
0.000941708
0.000941233
0.000940659
0.000939975
0.000939164
0.000938207
0.000937076
0.00093574
0.000934156
0.000932271
0.000930017
0.000927308
0.000924012
0.000919966
0.000914934
0.000908577
0.000900531
0.000889788
0.000876906
0.000862194
0.000841698
0.000805303
0.000767161
0.000740779
0.000721987
0.000678118
0.000622189
0.00010119
0.000101832
0.000102445
9.85459e-05
9.21075e-05
8.63441e-05
8.39693e-05
8.09294e-05
7.82341e-05
7.03352e-05
6.28359e-05
6.03024e-05
5.1975e-05
4.33937e-05
4.06438e-05
3.66555e-05
3.18443e-05
2.72582e-05
2.43906e-05
2.20748e-05
2.02468e-05
1.82073e-05
1.58559e-05
1.37286e-05
1.20362e-05
1.07038e-05
9.4636e-06
8.31312e-06
7.17396e-06
6.25171e-06
5.47226e-06
4.83646e-06
4.32894e-06
3.91057e-06
3.56873e-06
3.27818e-06
3.02032e-06
2.77509e-06
2.52637e-06
2.38972e-06
2.47253e-06
0.000940664
0.000941901
0.000942563
0.000942864
0.000943008
0.000943037
0.000942974
0.00094283
0.000942611
0.000942317
0.000941946
0.000941493
0.000940948
0.000940301
0.000939535
0.000938634
0.000937572
0.000936321
0.000934844
0.000933095
0.000931016
0.000928531
0.000925509
0.000921795
0.000917161
0.000911266
0.000903954
0.000894102
0.000882585
0.000869218
0.000850625
0.000816716
0.000778667
0.000756889
0.000736387
0.000713908
0.000100732
0.000100627
9.75407e-05
9.27149e-05
8.81385e-05
8.44203e-05
8.03594e-05
7.61679e-05
7.01031e-05
6.38339e-05
5.88743e-05
5.16847e-05
4.40686e-05
4.06208e-05
3.63449e-05
3.08168e-05
2.55175e-05
2.16357e-05
1.98386e-05
1.85045e-05
1.65955e-05
1.41974e-05
1.21125e-05
1.04092e-05
9.28525e-06
8.23759e-06
7.1929e-06
6.14657e-06
5.32691e-06
4.66268e-06
4.15506e-06
3.76789e-06
3.46033e-06
3.21834e-06
3.0182e-06
2.84397e-06
2.67945e-06
2.51688e-06
2.46063e-06
2.68765e-06
0.000940864
0.000941957
0.000942622
0.000942957
0.000943139
0.000943199
0.00094316
0.000943035
0.000942834
0.000942559
0.00094221
0.000941784
0.000941273
0.000940669
0.000939956
0.000939119
0.000938136
0.000936981
0.000935622
0.000934024
0.000932134
0.000929898
0.000927178
0.000923821
0.000919605
0.000914093
0.000907552
0.000898617
0.000888022
0.000877612
0.000858088
0.000820295
0.000780094
0.000754667
0.000748868
3.97225e-05
3.87004e-05
3.5534e-05
3.11998e-05
2.6423e-05
1.85213e-05
1.73989e-05
1.60796e-05
1.41441e-05
1.21065e-05
1.02169e-05
8.82654e-06
7.90454e-06
7.02672e-06
6.12815e-06
5.23487e-06
4.50398e-06
3.95188e-06
3.57217e-06
3.3046e-06
3.10427e-06
2.95263e-06
2.82842e-06
2.72183e-06
2.6205e-06
2.52507e-06
2.52929e-06
2.86277e-06
0.000940758
0.00094181
0.000942598
0.000943015
0.000943255
0.000943356
0.000943346
0.000943245
0.000943065
0.000942813
0.000942489
0.000942094
0.000941623
0.000941066
0.000940413
0.000939649
0.000938753
0.000937702
0.000936471
0.000935031
0.000933343
0.000931375
0.000928976
0.000925993
0.000922187
0.000916885
0.000911547
0.00090499
0.000897903
0.000892707
0.000886138
1.27402e-05
1.37916e-05
1.33229e-05
1.20749e-05
1.03939e-05
8.40742e-06
7.3985e-06
6.64684e-06
5.92928e-06
5.18863e-06
4.4354e-06
3.77558e-06
3.35688e-06
3.10927e-06
2.95546e-06
2.84957e-06
2.77038e-06
2.70408e-06
2.64726e-06
2.59083e-06
2.53943e-06
2.5932e-06
2.99206e-06
0.000940731
0.000941728
0.000942565
0.000943052
0.000943353
0.0009435
0.000943525
0.000943451
0.000943294
0.000943066
0.000942771
0.000942411
0.000941983
0.00094148
0.000940893
0.000940208
0.000939406
0.000938469
0.000937371
0.000936095
0.000934612
0.000932925
0.000930848
0.000928181
0.000924582
0.000918625
0.000914416
0.000908135
0.000904942
0.000901878
1.14567e-05
1.1901e-05
1.15371e-05
1.04572e-05
8.76635e-06
7.13201e-06
6.32506e-06
5.59564e-06
4.9627e-06
4.33364e-06
3.70401e-06
3.19772e-06
2.9251e-06
2.79411e-06
2.73078e-06
2.69578e-06
2.66816e-06
2.64254e-06
2.61476e-06
2.57921e-06
2.54411e-06
2.64395e-06
3.05763e-06
0.000940285
0.000941203
0.000942351
0.000943005
0.000943404
0.000943616
0.000943684
0.000943641
0.00094351
0.000943309
0.000943044
0.00094272
0.000942338
0.000941893
0.000941377
0.000940779
0.000940083
0.000939268
0.000938314
0.000937209
0.000935946
0.000934586
0.000932909
0.000930671
0.000927322
0.000919954
0.000916299
0.000912294
0.000908432
1.06929e-05
1.08029e-05
1.03647e-05
9.34989e-06
7.69186e-06
6.38546e-06
5.4438e-06
4.66028e-06
4.09159e-06
3.57008e-06
3.07992e-06
2.7832e-06
2.65635e-06
2.61984e-06
2.62076e-06
2.63346e-06
2.63989e-06
2.63284e-06
2.61284e-06
2.5769e-06
2.53149e-06
2.66088e-06
3.01828e-06
0.000939682
0.000941494
0.000942749
0.000943377
0.000943689
0.000943813
0.000943806
0.000943703
0.000943527
0.000943293
0.000943007
0.000942672
0.000942287
0.000941848
0.000941345
0.000940762
0.000940082
0.000939283
0.000938353
0.000937317
0.000936305
0.000935066
0.000933281
0.000930086
0.00092013
0.000915065
0.000914853
1.0283e-05
1.031e-05
9.71094e-06
8.69949e-06
6.88495e-06
5.70192e-06
4.5296e-06
3.81132e-06
3.33046e-06
2.9567e-06
2.6506e-06
2.52555e-06
2.51107e-06
2.5489e-06
2.60289e-06
2.64444e-06
2.6625e-06
2.65582e-06
2.62878e-06
2.57722e-06
2.49936e-06
2.60951e-06
2.86694e-06
0.000939711
0.000942158
0.000943268
0.000943721
0.000943911
0.000943939
0.000943862
0.00094371
0.000943504
0.000943253
0.000942966
0.000942642
0.00094228
0.000941874
0.000941411
0.000940873
0.000940239
0.000939484
0.000938699
0.000938095
0.000937476
0.000936583
0.000934308
1.01883e-05
1.04243e-05
9.23832e-06
7.40607e-06
5.47228e-06
4.70026e-06
3.83639e-06
3.1653e-06
2.72001e-06
2.5038e-06
2.3918e-06
2.40229e-06
2.47431e-06
2.57053e-06
2.65542e-06
2.70384e-06
2.71469e-06
2.69508e-06
2.65223e-06
2.57967e-06
2.47105e-06
2.53123e-06
2.73446e-06
0.000939929
0.000942254
0.000943337
0.000943797
0.000944001
0.000944043
0.000943979
0.000943845
0.000943662
0.000943444
0.0009432
0.000942935
0.000942652
0.000942349
0.000942022
0.000941663
0.000941254
0.00094076
0.000940387
0.000940402
0.000940779
0.000941381
6.64274e-06
5.6557e-06
4.58932e-06
4.15271e-06
3.44813e-06
2.70788e-06
2.23593e-06
2.16884e-06
2.21235e-06
2.33493e-06
2.49e-06
2.6341e-06
2.7368e-06
2.77843e-06
2.76899e-06
2.72816e-06
2.66797e-06
2.57552e-06
2.44214e-06
2.44672e-06
2.58997e-06
0.000939906
0.000942269
0.000943369
0.000943839
0.00094405
0.000944097
0.00094404
0.000943917
0.000943752
0.00094356
0.000943352
0.000943137
0.000942921
0.000942706
0.000942496
0.000942284
0.000942041
0.000941705
0.000941553
0.000941812
0.000942468
0.000943115
5.9521e-06
4.93471e-06
4.2433e-06
3.82526e-06
3.108e-06
2.4494e-06
1.81814e-06
1.88477e-06
2.0605e-06
2.29439e-06
2.52476e-06
2.70704e-06
2.8236e-06
2.84304e-06
2.79676e-06
2.72853e-06
2.65878e-06
2.5562e-06
2.40904e-06
2.3291e-06
2.36397e-06
0.000939498
0.000942165
0.000943357
0.00094384
0.000944048
0.00094409
0.000944031
0.000943914
0.000943757
0.000943583
0.000943403
0.000943227
0.00094306
0.000942909
0.000942778
0.000942661
0.000942519
0.000942431
0.000942347
0.000942568
0.000943101
0.000943657
0.000944029
4.39526e-06
3.92216e-06
3.31925e-06
2.63485e-06
2.0731e-06
1.45394e-06
1.65978e-06
1.94682e-06
2.26726e-06
2.55637e-06
2.77144e-06
2.90387e-06
2.87449e-06
2.76102e-06
2.65801e-06
2.60485e-06
2.51985e-06
2.39506e-06
2.18576e-06
2.05334e-06
0.000938672
0.000941949
0.0009433
0.000943797
0.000943986
0.000944009
0.000943937
0.000943812
0.000943661
0.000943499
0.00094334
0.000943192
0.000943064
0.000942959
0.000942885
0.000942829
0.000942742
0.000942737
0.00094273
0.000942901
0.000943249
0.000943487
0.000943651
0.000943616
3.37982e-06
2.92047e-06
2.50438e-06
1.77306e-06
1.08901e-06
1.45122e-06
1.83759e-06
2.22427e-06
2.56338e-06
2.81291e-06
2.98833e-06
2.85059e-06
2.59257e-06
2.44415e-06
2.47809e-06
2.47528e-06
2.4766e-06
2.03999e-06
1.63829e-06
0.000941043
0.00094067
0.000941712
0.000942991
0.000943573
0.00094382
0.000943893
0.000943852
0.000943747
0.0009436
0.00094345
0.000943295
0.000943153
0.00094303
0.000942934
0.000942873
0.00094285
0.000942849
0.000942837
0.000942875
0.000942934
0.000943064
0.000943277
0.000943432
0.000943526
0.000943556
2.5002e-06
2.21243e-06
1.42598e-06
1.00021e-06
1.39583e-06
1.77605e-06
2.15984e-06
2.52692e-06
2.82893e-06
3.14992e-06
2.67912e-06
2.02746e-06
1.87049e-06
2.21539e-06
2.46137e-06
2.898e-06
1.96596e-06
1.07529e-06
0.000940965
0.000941985
0.000942819
0.000943352
0.000943611
0.000943703
0.00094368
0.000943581
0.000943439
0.000943276
0.000943113
0.000942959
0.000942829
0.00094273
0.000942672
0.000942658
0.000942692
0.00094275
0.000942811
0.000942899
0.000943003
0.000943146
0.000943301
0.000943415
0.000943477
0.00094352
9.69514e-07
8.75297e-07
1.26258e-06
1.58658e-06
1.91656e-06
2.29304e-06
2.68031e-06
3.28651e-06
1.9386e-06
9.69674e-07
7.89922e-07
1.667e-06
2.3245e-06
3.59604e-06
1.65765e-06
4.16707e-07
0.00094161
0.000942583
0.000943127
0.000943357
0.000943445
0.000943423
0.000943321
0.000943167
0.000942987
0.000942802
0.000942622
0.000942467
0.000942349
0.000942277
0.000942261
0.000942306
0.000942408
0.000942539
0.000942687
0.000942852
0.000943001
0.000943162
0.000943264
0.000943354
0.00094345
8.10044e-07
1.15016e-06
1.42278e-06
1.68692e-06
2.07981e-06
2.66273e-06
4.21791e-06
-1.1919e-06
9.64905e-07
2.49087e-06
5.18617e-06
0.000943375
0.000942683
0.000943055
0.000943097
0.000943063
0.00094296
0.000942794
0.000942589
0.000942368
0.000942152
0.000941955
0.000941795
0.000941686
0.00094164
0.00094167
0.000941784
0.000941969
0.000942192
0.000942459
0.000942747
0.000942949
0.000943158
0.000943252
0.000943294
0.00093927
0.000941574
0.000942294
0.000942375
0.000942276
0.000942077
0.00094183
0.000941567
0.000941314
0.000941091
0.000940917
0.00094081
0.000940788
0.000940867
0.000941061
0.000941354
0.000941695
0.000942107
0.000942554
0.000942767
0.000943068
0.000943358
0.000943372
0.000939916
0.000941042
0.00094164
0.000941606
0.000941441
0.000941188
0.000940886
0.00094057
0.00094027
0.000940007
0.000939806
0.000939688
0.000939677
0.000939803
0.000940087
0.000940507
0.000940987
0.000941576
0.000942271
0.000942585
0.000943072
0.000943538
0.000943929
0.000941098
0.000941069
0.000940723
0.000940438
0.000940115
0.000939749
0.00093937
0.000939009
0.000938694
0.00093845
0.000938303
0.000938283
0.000938424
0.000938752
0.000939251
0.000939792
0.000940433
0.000941091
0.00094151
0.000942089
0.00093521
0.000938303
0.000939073
0.00093907
0.000938797
0.000938398
0.000937955
0.000937525
0.000937145
0.000936846
0.000936655
0.000936601
0.00093672
0.000937031
0.000937546
0.000938235
0.000938996
0.000939886
0.00094062
0.000941812
0.000933806
0.000936711
0.00093776
0.000937744
0.000937385
0.000936885
0.000936343
0.000935823
0.000935368
0.000935009
0.000934775
0.000934698
0.00093481
0.000935141
0.000935738
0.000936637
0.00093759
0.000938753
0.000939291
0.000935256
0.000936441
0.000936865
0.000936485
0.000935884
0.000935209
0.000934528
0.0009339
0.000933364
0.000932954
0.000932698
0.000932634
0.000932799
0.00093324
0.000934037
0.000935181
0.00093649
0.000938046
0.000937684
0.0009406
0.000937344
0.000936294
0.000935244
0.000934251
0.000933337
0.000932486
0.000931735
0.00093112
0.000930671
0.000930417
0.000930393
0.000930633
0.000931173
0.000932065
0.000933203
0.000934491
0.000935779
0.00093636
0.000932797
0.000933509
0.000933256
0.000932202
0.000931148
0.000930148
0.000929277
0.000928586
0.00092811
0.000927873
0.000927901
0.000928206
0.000928791
0.000929648
0.000930651
0.000931627
0.000933819
0.000936225
0.000940084
0.000933276
0.00093209
0.000930238
0.000928776
0.000927517
0.00092648
0.000925695
0.00092519
0.000924981
0.000925077
0.000925471
0.000926139
0.000927043
0.000928063
0.000928694
0.000931495
0.00092308
0.000927665
0.000927133
0.000925792
0.000924398
0.000923215
0.000922333
0.000921797
0.000921619
0.000921792
0.000922288
0.000923054
0.000924061
0.000925404
0.000927109
0.000932733
0.000923809
0.000926837
0.000924858
0.00092285
0.000920925
0.000919449
0.000918402
0.000917805
0.000917645
0.00091789
0.000918471
0.00091927
0.00092011
0.000920929
0.000921425
0.000933695
0.000932283
0.000924027
0.000919908
0.000916923
0.00091501
0.000913745
0.000913068
0.000912936
0.000913302
0.000914078
0.000915109
0.000916008
0.000916313
0.00091591
0.000943122
0.000922926
0.000916328
0.000912091
0.00090965
0.000908174
0.000907409
0.000907309
0.000907852
0.000908993
0.000910631
0.000912293
0.000913282
0.00091248
0.000907697
0.000897988
0.000903904
0.000903752
0.000902447
0.00090129
0.000900569
0.000900506
0.000901241
0.000902906
0.000905637
0.000908969
0.000912901
0.000914341
0.000911118
0.000889241
0.000895328
0.000896248
0.000895002
0.000893587
0.000892593
0.000892294
0.000892893
0.000894617
0.00089778
0.000901639
0.000908052
0.000911369
0.000913669
0.000892014
0.000892145
0.000890191
0.000887502
0.000885146
0.000883493
0.000882656
0.000882814
0.000884378
0.000888183
0.00089441
0.000905173
0.000907363
0.00091039
0.000894679
0.000885248
0.000879711
0.000875827
0.00087325
0.000871625
0.00087091
0.000871405
0.00087389
0.000879951
0.000891416
0.000911703
0.000879492
0.000872791
0.000868836
0.000864586
0.000861607
0.000859371
0.000857598
0.000856196
0.000855114
0.000855078
0.000852274
0.000908544
0.000871317
0.000860442
0.000853226
0.000849268
0.000846432
0.000843653
0.000840287
0.000835425
0.000827774
0.000810583
0.000782287
0.000782687
0.00082679
0.00083568
0.000835719
0.000834573
0.00083291
0.000830479
0.000827079
0.000822378
0.000815981
0.000803249
0.000783579
0.000781757
0.000794426
0.000808899
0.00081655
0.000819047
0.000819119
0.000817291
0.000813662
0.000807984
0.000799897
0.000785779
0.000771188
0.000764922
0.000751551
0.000773501
0.000789612
0.000800588
0.000805115
0.00080646
0.000805354
0.000802148
0.000796899
0.000789574
0.000778486
0.000766278
0.000754517
0.000748361
0.000735885
0.000730484
0.000741359
0.000767994
0.000785428
0.000792384
0.000794895
0.000794448
0.000791768
0.000787218
0.000781023
0.000772619
0.000762647
0.000751515
0.000748135
0.000734391
0.000726564
0.000644629
0.000643006
0.000720524
0.000756244
0.000774024
0.000781783
0.000784613
0.000784249
0.000781598
0.000777103
0.000770985
0.000763045
0.000752552
0.000743954
0.000739632
0.000716435
0.000701227
0.000687043
0.00071083
0.000725243
0.0007253
0.000714754
0.00069284
0.000697313
0.00071031
0.000742347
0.000760082
0.000769766
0.000774564
0.00077597
0.00077482
0.000771662
0.000766784
0.000760331
0.000752276
0.000741598
0.000732463
0.000719447
0.000697203
0.00068687
0.000675132
0.000663089
0.00075748
0.000775315
0.00077184
0.000758903
0.000747487
0.000749609
0.000746362
0.000740053
0.000729845
0.000731543
0.000738433
0.000751407
0.00076034
0.000765688
0.000768021
0.000767906
0.000765784
0.000761971
0.000756642
0.00074989
0.000741723
0.000731427
0.000721747
0.000710071
0.000692506
0.00067708
0.000663249
0.000650088
0.000635342
0.000634767
0.000450593
0.000450772
0.00045095
0.000451007
0.00045102
0.000801447
0.000819783
0.00080992
0.000789074
0.000793116
0.000785926
0.000774962
0.000767456
0.000765189
0.000760807
0.000755935
0.00075035
0.000748938
0.000750977
0.000756009
0.000759703
0.000761621
0.000761682
0.000760036
0.000756858
0.000752298
0.000746457
0.000739405
0.00073118
0.000721337
0.000711488
0.000699571
0.000679855
0.00066425
0.00065032
0.000639355
0.00063321
0.000633925
0.000450398
0.000450653
0.000450876
0.000450977
0.000451042
0.000999246
0.00102252
0.000852678
0.000874487
0.000861581
0.000835618
0.000835239
0.0008216
0.000807153
0.000803889
0.000796479
0.000788045
0.000780535
0.000775113
0.000769708
0.000764676
0.000759952
0.000757309
0.000756582
0.000757302
0.000757562
0.000756882
0.000755038
0.000751983
0.000747733
0.000742319
0.000735749
0.000728005
0.000719018
0.000708408
0.000697053
0.000683631
0.000666287
0.000649792
0.000634144
0.000625521
0.000623718
0.000628715
0.000449203
0.000449957
0.000450488
0.000450842
0.000451052
0.000451213
0.000994179
0.000985235
0.000941308
0.000899254
0.000890352
0.000871156
0.000851465
0.000843359
0.000831449
0.000819531
0.000812146
0.00080376
0.000795348
0.000787634
0.000781063
0.000774955
0.000769407
0.000764409
0.000760625
0.000757933
0.000755984
0.00075389
0.000751264
0.000747868
0.000743584
0.000738351
0.000732134
0.000724896
0.000716581
0.000707067
0.000696028
0.000683743
0.000668738
0.000651564
0.000632634
0.000619016
0.000612083
0.00060804
0.000580003
0.000522542
0.000507722
0.000509219
0.000445633
0.000446969
0.000447665
0.000448543
0.00044909
0.000449836
0.000450444
0.000450906
0.000451285
0.0004516
0.000994855
0.000975306
0.000943221
0.000912474
0.00089445
0.000876725
0.000859907
0.000848544
0.000837027
0.000826043
0.000817251
0.000808163
0.000799329
0.000791178
0.000783841
0.000777081
0.000770913
0.000765311
0.000760486
0.000756334
0.000752604
0.000748833
0.000744728
0.000740081
0.000734751
0.000728644
0.00072169
0.000713821
0.000704957
0.000694948
0.000683562
0.00067089
0.000656044
0.000640143
0.000623363
0.000608619
0.000596559
0.000585777
0.000553426
0.000518034
0.000505031
0.000503473
0.000490431
0.000481257
0.000484535
0.000444308
0.000449501
0.00045057
0.000450466
0.000449166
0.000446875
0.000446046
0.000447395
0.000448385
0.000449092
0.000449831
0.000450501