/*--------------------------------*- C++ -*----------------------------------*\
| =========                 |                                                 |
| \\      /  F ield         | OpenFOAM: The Open Source CFD Toolbox           |
|  \\    /   O peration     | Version:  2412                                  |
|   \\  /    A nd           | Website:  www.openfoam.com                      |
|    \\/     M anipulation  |                                                 |
\*---------------------------------------------------------------------------*/
FoamFile
{
    version     2.0;
    format      ascii;
    arch        "LSB;label=32;scalar=64";
    class       surfaceScalarField;
    location    "200";
    object      phi;
}
// * * * * * * * * * * * * * * * * * * * * * * * * * * * * * * * * * * * * * //

dimensions      [0 3 -1 0 0 0 0];

oriented        oriented;

internalField   nonuniform List<scalar> 
116495
(
1.39796e-17
5.73914e-26
3.64361e-25
1.39796e-17
-2.93498e-25
-2.53879e-24
1.39796e-17
-2.41904e-25
1.38439e-24
1.39796e-17
-4.49749e-25
-1.2196e-24
1.39796e-17
-5.32091e-25
-3.90159e-25
1.39796e-17
-6.29746e-25
-4.46672e-25
1.39796e-17
-7.00359e-25
-4.51508e-25
1.39796e-17
-7.42107e-25
-3.7521e-25
1.39796e-17
-7.39941e-25
-3.78558e-25
1.39796e-17
-6.95708e-25
-3.07512e-25
1.39796e-17
-6.10823e-25
-2.13628e-25
1.39796e-17
-4.97502e-25
-1.33243e-25
1.39796e-17
-3.64971e-25
-5.4364e-26
1.39796e-17
-2.31078e-25
6.91732e-27
1.39796e-17
-9.80354e-26
5.61477e-26
1.39796e-17
1.77157e-26
8.78684e-26
1.39796e-17
1.15277e-25
1.15915e-25
1.39796e-17
1.84313e-25
1.37363e-25
1.39796e-17
2.2868e-25
1.4985e-25
1.39796e-17
2.42768e-25
1.41408e-25
1.39796e-17
2.36965e-25
1.19978e-25
1.39796e-17
2.16055e-25
8.88854e-26
1.39796e-17
1.88324e-25
5.69311e-26
1.39796e-17
1.56292e-25
2.58396e-26
1.39796e-17
1.23401e-25
-4.34764e-27
1.39796e-17
9.22884e-26
-3.04186e-26
1.39796e-17
6.46558e-26
-5.29922e-26
1.39796e-17
4.14092e-26
-6.67411e-26
1.39796e-17
2.3427e-26
-7.44672e-26
1.39796e-17
1.0048e-26
-7.27244e-26
1.39796e-17
2.56836e-27
-6.48947e-26
1.39796e-17
-3.18553e-28
-5.15392e-26
1.39796e-17
1.44684e-28
-3.77347e-26
1.39796e-17
3.35735e-27
-2.31169e-26
1.39796e-17
8.24707e-27
-1.08795e-26
1.39796e-17
1.28349e-26
-1.18947e-27
1.39796e-17
1.6527e-26
3.13195e-27
1.39796e-17
1.84451e-26
6.56584e-27
1.39796e-17
1.96948e-26
7.32493e-27
1.39796e-17
1.98169e-26
7.84283e-27
1.39796e-17
2.00713e-26
6.15077e-27
1.39796e-17
1.94196e-26
1.79961e-27
1.39796e-17
1.83762e-26
-7.99042e-27
1.39796e-17
1.6924e-26
-1.95722e-26
1.39796e-17
1.78489e-26
-2.8108e-26
1.39796e-17
2.11166e-26
-2.67123e-26
1.39796e-17
2.95616e-26
-1.69829e-26
1.39796e-17
4.05249e-26
1.24746e-27
1.39796e-17
5.47385e-26
2.79533e-26
1.39796e-17
6.76734e-26
5.99543e-26
1.39796e-17
7.88188e-26
9.30068e-26
1.39796e-17
8.41901e-26
1.27759e-25
1.39796e-17
8.10647e-26
1.57153e-25
1.39796e-17
6.6757e-26
1.80484e-25
1.39796e-17
3.88688e-26
1.84927e-25
1.39796e-17
-1.16682e-27
1.76942e-25
1.39796e-17
-5.29888e-26
1.51107e-25
1.39796e-17
-1.13721e-25
1.14821e-25
1.39796e-17
-1.96634e-25
5.18141e-26
1.39796e-17
-2.98911e-25
-3.46709e-26
1.39796e-17
-4.1492e-25
-1.6008e-25
1.39796e-17
-5.19582e-25
-2.88189e-25
1.39796e-17
-5.99508e-25
-4.09524e-25
1.39796e-17
-6.29731e-25
-4.93318e-25
1.39796e-17
-5.99455e-25
-5.26736e-25
1.39796e-17
-4.98336e-25
-5.02596e-25
1.39796e-17
-3.2373e-25
-4.09598e-25
1.39796e-17
-9.81389e-26
-2.68738e-25
1.39796e-17
1.76191e-25
-1.05734e-25
1.39796e-17
4.5116e-25
6.13814e-26
1.39796e-17
7.20483e-25
2.31122e-25
1.39796e-17
9.4059e-25
3.89666e-25
1.39796e-17
1.10901e-24
5.32715e-25
1.39796e-17
1.1859e-24
6.14894e-25
1.39796e-17
1.17246e-24
6.38882e-25
1.39796e-17
1.05652e-24
5.97822e-25
1.39796e-17
8.62962e-25
5.0809e-25
1.39796e-17
6.21671e-25
3.72791e-25
1.39796e-17
3.57332e-25
1.88277e-25
1.39796e-17
1.01663e-25
-2.59594e-26
1.39796e-17
-1.2839e-25
-3.19946e-25
1.39796e-17
-3.22031e-25
-6.86457e-25
1.39796e-17
-4.59166e-25
-1.09112e-24
1.39796e-17
-5.17811e-25
-1.43472e-24
1.39796e-17
-4.69723e-25
-1.63652e-24
1.39796e-17
-2.99426e-25
-1.67377e-24
1.39796e-17
1.42069e-26
-1.6069e-24
1.39796e-17
4.65798e-25
-1.44098e-24
1.39796e-17
1.16442e-24
-1.03173e-24
1.39796e-17
2.08137e-24
-3.41141e-25
1.39796e-17
3.23162e-24
7.02437e-25
1.39796e-17
4.36609e-24
1.8052e-24
1.39796e-17
5.39856e-24
2.82232e-24
1.39796e-17
6.0551e-24
3.55282e-24
1.39796e-17
6.30544e-24
3.95798e-24
1.39796e-17
6.03816e-24
4.05559e-24
1.39795e-17
5.1983e-24
3.44576e-24
1.39795e-17
3.81408e-24
1.36843e-24
1.39795e-17
2.29558e-24
2.42836e-24
1.13884e-24
6.02556e-24
1.95445e-17
-8.28127e-26
1.96312e-24
1.95445e-17
-2.92062e-27
-4.41166e-24
1.95445e-17
-2.44793e-25
2.20269e-24
1.95445e-17
-2.79631e-25
-1.53607e-24
1.95445e-17
-3.97502e-25
-6.05395e-25
1.95445e-17
-4.94279e-25
-5.72547e-25
1.95445e-17
-5.68165e-25
-6.14035e-25
1.95445e-17
-6.08539e-25
-5.08203e-25
1.95445e-17
-6.12601e-25
-5.07348e-25
1.95445e-17
-5.80506e-25
-4.21706e-25
1.95445e-17
-5.12784e-25
-3.1225e-25
1.95445e-17
-4.16576e-25
-2.14974e-25
1.95445e-17
-3.04608e-25
-1.17017e-25
1.95445e-17
-1.89603e-25
-2.68183e-26
1.95445e-17
-7.82342e-26
4.86508e-26
1.95445e-17
2.274e-26
1.04753e-25
1.95445e-17
1.0567e-25
1.45321e-25
1.95445e-17
1.67438e-25
1.70533e-25
1.95445e-17
2.02881e-25
1.86871e-25
1.95445e-17
2.14568e-25
1.89624e-25
1.95445e-17
2.07366e-25
1.72244e-25
1.95445e-17
1.89048e-25
1.40557e-25
1.95445e-17
1.63267e-25
1.02032e-25
1.95445e-17
1.35297e-25
6.21387e-26
1.95445e-17
1.08887e-25
2.14214e-26
1.95445e-17
8.43023e-26
-1.70815e-26
1.95445e-17
6.22571e-26
-4.79352e-26
1.95445e-17
4.23183e-26
-6.84198e-26
1.95445e-17
2.66873e-26
-7.78861e-26
1.95445e-17
1.53926e-26
-7.84451e-26
1.95445e-17
8.41501e-27
-7.11703e-26
1.95445e-17
5.02333e-27
-5.77644e-26
1.95445e-17
4.71819e-27
-4.21864e-26
1.95445e-17
6.59068e-27
-2.63351e-26
1.95445e-17
9.8951e-27
-1.22881e-26
1.95445e-17
1.30249e-26
-2.19416e-27
1.95445e-17
1.56487e-26
3.43065e-27
1.95445e-17
1.74902e-26
7.21365e-27
1.95445e-17
1.87836e-26
9.22604e-27
1.95445e-17
1.94397e-26
9.31731e-27
1.95445e-17
1.93376e-26
7.41861e-27
1.95445e-17
1.82006e-26
2.01204e-27
1.95445e-17
1.62426e-26
-7.70715e-27
1.95445e-17
1.41229e-26
-1.99504e-26
1.95445e-17
1.33887e-26
-2.65417e-26
1.95445e-17
1.55482e-26
-2.32611e-26
1.95445e-17
2.19149e-26
-1.20573e-26
1.95445e-17
3.10488e-26
9.84814e-27
1.95445e-17
4.2168e-26
4.24231e-26
1.95445e-17
5.36292e-26
7.92122e-26
1.95445e-17
6.22985e-26
1.18141e-25
1.95445e-17
6.60285e-26
1.55066e-25
1.95445e-17
6.27497e-26
1.84499e-25
1.95445e-17
5.02175e-26
2.03239e-25
1.95445e-17
2.89046e-26
2.06087e-25
1.95445e-17
-1.32867e-27
1.91072e-25
1.95445e-17
-3.89276e-26
1.58074e-25
1.95445e-17
-8.92278e-26
1.07609e-25
1.95445e-17
-1.58974e-25
2.48516e-26
1.95445e-17
-2.46033e-25
-9.96311e-26
1.95445e-17
-3.42365e-25
-2.50876e-25
1.95445e-17
-4.38531e-25
-4.10634e-25
1.95445e-17
-5.09419e-25
-5.45892e-25
1.95445e-17
-5.42103e-25
-6.20658e-25
1.95445e-17
-5.19367e-25
-6.27378e-25
1.95445e-17
-4.30908e-25
-5.83434e-25
1.95445e-17
-2.80281e-25
-4.82474e-25
1.95445e-17
-7.54563e-26
-3.13923e-25
1.95445e-17
1.50334e-25
-9.78924e-26
1.95445e-17
3.84871e-25
1.46065e-25
1.95445e-17
6.06971e-25
3.70536e-25
1.95445e-17
7.99465e-25
5.88631e-25
1.95445e-17
9.33844e-25
7.53304e-25
1.95445e-17
9.98121e-25
8.28625e-25
1.95445e-17
9.74778e-25
8.24288e-25
1.95445e-17
8.67487e-25
7.7421e-25
1.95445e-17
6.92369e-25
6.71782e-25
1.95445e-17
4.84442e-25
5.21058e-25
1.95445e-17
2.73715e-25
2.97704e-25
1.95445e-17
7.62294e-26
-1.11897e-26
1.95445e-17
-9.92919e-26
-4.0493e-25
1.95445e-17
-2.45765e-25
-8.48115e-25
1.95445e-17
-3.44725e-25
-1.30473e-24
1.95445e-17
-3.85708e-25
-1.68019e-24
1.95445e-17
-3.57501e-25
-1.8956e-24
1.95445e-17
-2.47343e-25
-1.90039e-24
1.95445e-17
-3.33317e-26
-1.73094e-24
1.95445e-17
3.18875e-25
-1.43297e-24
1.95445e-17
8.7479e-25
-9.3293e-25
1.95445e-17
1.66196e-24
4.98543e-26
1.95445e-17
2.61162e-24
1.37821e-24
1.95445e-17
3.64663e-24
2.81066e-24
1.95445e-17
4.53385e-24
4.04278e-24
1.95445e-17
5.17564e-24
4.88188e-24
1.95445e-17
5.428e-24
5.17595e-24
1.95445e-17
5.22911e-24
5.18363e-24
1.95445e-17
4.44406e-24
4.52586e-24
1.95444e-17
3.22592e-24
2.06039e-24
1.95444e-17
1.77135e-24
3.08481e-24
4.66918e-25
6.96388e-24
1.39796e-17
2.19595e-25
1.39796e-17
-2.37064e-24
1.39796e-17
1.33235e-24
1.39796e-17
-1.24446e-24
1.39796e-17
-4.22382e-25
1.39796e-17
-4.75878e-25
1.39796e-17
-4.82624e-25
1.39796e-17
-4.08398e-25
1.39796e-17
-4.16157e-25
1.39796e-17
-3.55724e-25
1.39796e-17
-2.79137e-25
1.39796e-17
-2.05744e-25
1.39796e-17
-1.24266e-25
1.39796e-17
-3.79319e-26
1.39796e-17
3.9384e-26
1.39796e-17
9.73972e-26
1.39796e-17
1.41703e-25
1.39796e-17
1.65118e-25
1.39796e-17
1.74391e-25
1.39796e-17
1.72956e-25
1.39796e-17
1.5976e-25
1.39796e-17
1.35227e-25
1.39796e-17
1.03808e-25
1.39796e-17
6.94713e-26
1.39796e-17
3.27043e-26
1.39796e-17
-2.5691e-27
1.39796e-17
-3.15687e-26
1.39796e-17
-5.18966e-26
1.39796e-17
-6.2781e-26
1.39796e-17
-6.43605e-26
1.39796e-17
-5.84888e-26
1.39796e-17
-4.77543e-26
1.39796e-17
-3.47732e-26
1.39796e-17
-2.12557e-26
1.39796e-17
-9.60342e-27
1.39796e-17
-8.13962e-28
1.39796e-17
4.99249e-27
1.39796e-17
8.76345e-27
1.39796e-17
1.01709e-26
1.39796e-17
9.279e-27
1.39796e-17
6.1925e-27
1.39796e-17
4.57176e-28
1.39796e-17
-7.71811e-27
1.39796e-17
-1.6276e-26
1.39796e-17
-2.1009e-26
1.39796e-17
-1.90161e-26
1.39796e-17
-8.93463e-27
1.39796e-17
9.6339e-27
1.39796e-17
3.63235e-26
1.39796e-17
6.66952e-26
1.39796e-17
1.00589e-25
1.39796e-17
1.35054e-25
1.39796e-17
1.64627e-25
1.39796e-17
1.84424e-25
1.39796e-17
1.88599e-25
1.39796e-17
1.76021e-25
1.39796e-17
1.44042e-25
1.39796e-17
8.6681e-26
1.39796e-17
8.02612e-28
1.39796e-17
-1.14766e-25
1.39796e-17
-2.41111e-25
1.39796e-17
-3.68088e-25
1.39796e-17
-4.79755e-25
1.39796e-17
-5.49976e-25
1.39796e-17
-5.68803e-25
1.39796e-17
-5.39857e-25
1.39796e-17
-4.49555e-25
1.39796e-17
-2.94699e-25
1.39796e-17
-8.79334e-26
1.39796e-17
1.44084e-25
1.39796e-17
3.53081e-25
1.39796e-17
5.3282e-25
1.39796e-17
6.59923e-25
1.39796e-17
7.19729e-25
1.39796e-17
7.33886e-25
1.39796e-17
7.18522e-25
1.39796e-17
6.47472e-25
1.39796e-17
5.0453e-25
1.39796e-17
2.91245e-25
1.39796e-17
-5.38332e-27
1.39796e-17
-3.66418e-25
1.39796e-17
-7.68529e-25
1.39796e-17
-1.17654e-24
1.39796e-17
-1.51892e-24
1.39796e-17
-1.71824e-24
1.39796e-17
-1.74347e-24
1.39796e-17
-1.63162e-24
1.39796e-17
-1.33657e-24
1.39796e-17
-7.39569e-25
1.39796e-17
2.56442e-25
1.39796e-17
1.47389e-24
1.39796e-17
2.63638e-24
1.39796e-17
3.64629e-24
1.39796e-17
4.31621e-24
1.39796e-17
4.58569e-24
1.39796e-17
4.65043e-24
1.39795e-17
4.1761e-24
1.39795e-17
2.21536e-24
1.39795e-17
2.88664e-24
6.10456e-24
1.47444e-17
7.33616e-26
4.56195e-25
1.47444e-17
-6.0535e-25
-2.48226e-24
1.47444e-17
-4.93722e-25
1.41814e-24
1.47444e-17
-1.03422e-24
-1.07492e-24
1.47444e-17
-1.08147e-24
-2.40446e-25
1.47444e-17
-1.17556e-24
-2.67338e-25
1.47444e-17
-1.20645e-24
-2.4284e-25
1.47444e-17
-1.19322e-24
-1.46385e-25
1.47444e-17
-1.14964e-24
-1.61129e-25
1.47444e-17
-1.06647e-24
-1.18766e-25
1.47444e-17
-9.54026e-25
-6.96424e-26
1.47444e-17
-8.14467e-25
-2.52807e-26
1.47444e-17
-6.53297e-25
2.18766e-26
1.47444e-17
-4.75789e-25
6.10285e-26
1.47444e-17
-2.98277e-25
8.70033e-26
1.47444e-17
-1.2755e-25
9.78126e-26
1.47444e-17
1.99319e-26
9.74513e-26
1.47444e-17
1.41321e-25
8.87018e-26
1.47444e-17
2.29558e-25
8.15913e-26
1.47444e-17
2.83641e-25
7.31767e-26
1.47444e-17
3.00457e-25
6.03259e-26
1.47444e-17
2.84776e-25
4.33071e-26
1.47444e-17
2.44318e-25
1.90135e-26
1.47444e-17
1.90115e-25
-4.33758e-27
1.47444e-17
1.32484e-25
-2.04303e-26
1.47444e-17
8.06115e-26
-3.30993e-26
1.47444e-17
3.89523e-26
-4.07088e-26
1.47444e-17
9.22438e-27
-4.70836e-26
1.47444e-17
-1.06102e-26
-4.77758e-26
1.47444e-17
-2.13089e-26
-4.5079e-26
1.47444e-17
-2.43984e-26
-4.07926e-26
1.47444e-17
-2.10486e-26
-3.47875e-26
1.47444e-17
-1.44703e-26
-2.57444e-26
1.47444e-17
-5.10005e-27
-1.82313e-26
1.47444e-17
4.5513e-27
-1.08187e-26
1.47444e-17
1.39917e-26
-4.63698e-27
1.47444e-17
2.05799e-26
4.05874e-28
1.47444e-17
2.42882e-26
2.17288e-27
1.47444e-17
2.42524e-26
3.80283e-27
1.47444e-17
2.17854e-26
9.70689e-28
1.47444e-17
1.83624e-26
-1.45832e-27
1.47444e-17
1.63198e-26
-4.37995e-27
1.47444e-17
1.66825e-26
-8.15484e-27
1.47444e-17
2.07768e-26
-1.38722e-26
1.47444e-17
2.75694e-26
-1.776e-26
1.47444e-17
3.81787e-26
-1.94611e-26
1.47444e-17
5.11107e-26
-1.51788e-26
1.47444e-17
6.8567e-26
-6.20057e-27
1.47444e-17
8.75638e-26
9.93551e-27
1.47444e-17
1.07975e-25
2.92043e-26
1.47444e-17
1.25464e-25
5.29546e-26
1.47444e-17
1.38246e-25
7.48496e-26
1.47444e-17
1.42075e-25
9.13671e-26
1.47444e-17
1.30342e-25
1.00537e-25
1.47444e-17
9.79274e-26
1.10642e-25
1.47444e-17
3.98345e-26
1.10733e-25
1.47444e-17
-4.7861e-26
1.02325e-25
1.47444e-17
-1.64671e-25
8.38608e-26
1.47444e-17
-3.01218e-25
4.94736e-26
1.47444e-17
-4.54433e-25
-6.13417e-27
1.47444e-17
-6.11797e-25
-8.07809e-26
1.47444e-17
-7.59038e-25
-1.68654e-25
1.47444e-17
-8.76812e-25
-2.47652e-25
1.47444e-17
-9.47959e-25
-2.99029e-25
1.47444e-17
-9.53565e-25
-3.15133e-25
1.47444e-17
-8.70004e-25
-2.99442e-25
1.47444e-17
-6.90116e-25
-2.49446e-25
1.47444e-17
-3.95543e-25
-1.77397e-25
1.47444e-17
6.20858e-27
-8.72787e-26
1.47444e-17
4.89258e-25
2.83462e-28
1.47444e-17
1.00607e-24
1.04699e-25
1.47444e-17
1.50869e-24
2.17251e-25
1.47444e-17
1.94166e-24
3.34139e-25
1.47444e-17
2.25026e-24
4.0663e-25
1.47444e-17
2.3868e-24
4.1854e-25
1.47444e-17
2.34052e-24
3.95355e-25
1.47444e-17
2.10748e-24
3.60588e-25
1.47443e-17
1.71419e-24
2.41122e-25
1.47443e-17
1.20544e-24
7.03583e-26
1.47443e-17
6.43737e-25
-1.1215e-25
1.47443e-17
1.03029e-25
-3.00862e-25
1.47443e-17
-3.5881e-25
-4.83368e-25
1.47443e-17
-6.82751e-25
-6.83286e-25
1.47444e-17
-8.34596e-25
-8.23904e-25
1.47444e-17
-7.60253e-25
-9.11336e-25
1.47444e-17
-4.14538e-25
-1.00487e-24
1.47444e-17
2.42264e-25
-9.97586e-25
1.47444e-17
1.20574e-24
-9.38897e-25
1.47444e-17
2.41545e-24
-7.45119e-25
1.47444e-17
3.87284e-24
-3.55851e-25
1.47444e-17
5.46096e-24
2.05311e-25
1.47444e-17
7.08388e-24
8.68487e-25
1.47444e-17
8.58566e-24
1.46182e-24
1.47444e-17
9.73958e-24
1.8891e-24
1.47444e-17
1.03454e-23
2.0744e-24
1.47443e-17
1.01667e-23
2.16277e-24
1.47443e-17
9.08582e-24
1.88869e-24
1.47443e-17
6.87818e-24
2.6043e-25
1.47443e-17
4.1442e-24
1.76538e-24
2.00842e-24
5.47909e-24
2.48679e-17
4.88473e-27
1.67902e-24
2.48679e-17
-6.18129e-25
-4.24842e-24
2.48679e-17
-6.93569e-25
2.512e-24
2.48679e-17
-1.32447e-24
-1.3833e-24
2.48679e-17
-1.37117e-24
-2.99242e-25
2.48679e-17
-1.47334e-24
-3.13495e-25
2.48679e-17
-1.51465e-24
-3.13119e-25
2.48679e-17
-1.50578e-24
-2.13155e-25
2.48679e-17
-1.46031e-24
-2.48502e-25
2.48679e-17
-1.36276e-24
-2.10035e-25
2.48679e-17
-1.21876e-24
-1.41755e-25
2.48679e-17
-1.0368e-24
-8.69326e-26
2.48679e-17
-8.26474e-25
-2.26409e-26
2.48679e-17
-5.98176e-25
2.56775e-26
2.48679e-17
-3.64454e-25
6.24782e-26
2.48679e-17
-1.37608e-25
8.27761e-26
2.48679e-17
6.05041e-26
9.35253e-26
2.48679e-17
2.15962e-25
9.36303e-26
2.48679e-17
3.28409e-25
8.44593e-26
2.48679e-17
3.9251e-25
6.93748e-26
2.48679e-17
4.09988e-25
6.04597e-26
2.48679e-17
3.86558e-25
5.18007e-26
2.48679e-17
3.35525e-25
2.852e-26
2.48679e-17
2.67324e-25
4.83224e-27
2.48679e-17
1.96108e-25
-1.49212e-26
2.48679e-17
1.2992e-25
-2.83885e-26
2.48679e-17
7.48473e-26
-4.2736e-26
2.48679e-17
3.40071e-26
-5.06913e-26
2.48679e-17
5.87107e-27
-5.79821e-26
2.48679e-17
-1.19712e-26
-5.6658e-26
2.48679e-17
-1.94736e-26
-5.43075e-26
2.48679e-17
-2.02472e-26
-4.45056e-26
2.48679e-17
-1.39989e-26
-3.64595e-26
2.48679e-17
-5.06022e-27
-2.46919e-26
2.48679e-17
6.37126e-27
-1.65967e-26
2.48679e-17
1.668e-26
-6.07155e-27
2.48679e-17
2.4715e-26
-1.21875e-27
2.48679e-17
2.88711e-26
4.354e-27
2.48679e-17
2.97186e-26
4.73465e-27
2.48679e-17
2.73759e-26
4.01668e-27
2.48679e-17
2.47953e-26
9.15602e-28
2.48679e-17
2.35776e-26
-4.5457e-28
2.48679e-17
2.58229e-26
-6.46637e-27
2.48679e-17
3.18441e-26
-1.20063e-26
2.48679e-17
4.18744e-26
-1.86044e-26
2.48679e-17
5.61508e-26
-1.70263e-26
2.48679e-17
7.29252e-26
-1.18077e-26
2.48679e-17
9.39196e-26
3.20716e-27
2.48679e-17
1.16486e-25
2.31693e-26
2.48679e-17
1.39418e-25
5.15939e-26
2.48679e-17
1.60148e-25
8.0206e-26
2.48679e-17
1.72749e-25
1.09749e-25
2.48679e-17
1.72661e-25
1.27635e-25
2.48679e-17
1.52534e-25
1.38165e-25
2.48679e-17
1.05107e-25
1.38047e-25
2.48679e-17
2.33936e-26
1.29818e-25
2.48679e-17
-9.47878e-26
1.07828e-25
2.48679e-17
-2.46947e-25
8.17732e-26
2.48679e-17
-4.24785e-25
3.27672e-26
2.48679e-17
-6.1939e-25
-3.65653e-26
2.48679e-17
-8.20269e-25
-1.36525e-25
2.48679e-17
-1.00587e-24
-2.38603e-25
2.48679e-17
-1.14936e-24
-3.30442e-25
2.48679e-17
-1.23198e-24
-3.72023e-25
2.48679e-17
-1.22526e-24
-3.79384e-25
2.48679e-17
-1.11202e-24
-3.5913e-25
2.48679e-17
-8.61556e-25
-2.90092e-25
2.48679e-17
-4.628e-25
-1.68302e-25
2.48679e-17
7.76685e-26
-3.37048e-26
2.48679e-17
7.25346e-25
7.74404e-26
2.48679e-17
1.39645e-24
1.84102e-25
2.48679e-17
2.02247e-24
2.87553e-25
2.48679e-17
2.55225e-24
3.97913e-25
2.48679e-17
2.90601e-24
4.344e-25
2.48679e-17
3.04263e-24
4.31896e-25
2.48679e-17
2.93832e-24
4.39516e-25
2.48679e-17
2.60427e-24
4.11574e-25
2.48679e-17
2.07135e-24
2.51215e-25
2.48679e-17
1.4052e-24
5.71804e-26
2.48679e-17
6.90011e-25
-1.44363e-25
2.48679e-17
1.84355e-26
-3.65677e-25
2.48679e-17
-5.22049e-25
-5.89923e-25
2.48679e-17
-8.84845e-25
-8.31333e-25
2.48679e-17
-1.02125e-24
-9.92934e-25
2.48679e-17
-8.81779e-25
-1.09398e-24
2.48679e-17
-3.8497e-25
-1.11964e-24
2.48679e-17
5.04782e-25
-1.05252e-24
2.48679e-17
1.76286e-24
-9.24759e-25
2.48679e-17
3.33629e-24
-6.3168e-25
2.48679e-17
5.16486e-24
-1.18301e-25
2.48679e-17
7.18159e-24
6.35512e-25
2.48679e-17
9.25841e-24
1.44049e-24
2.48679e-17
1.11225e-23
2.13212e-24
2.48679e-17
1.25524e-23
2.5433e-24
2.48679e-17
1.32737e-23
2.55879e-24
2.48679e-17
1.30256e-23
2.61547e-24
2.48679e-17
1.15588e-23
2.30503e-24
2.48679e-17
8.6681e-24
4.4334e-26
2.48679e-17
5.0112e-24
1.62441e-24
2.05006e-24
5.70922e-24
3.03691e-17
-6.47102e-28
1.2213e-24
3.03691e-17
-8.11803e-25
-4.09357e-24
3.03691e-17
-6.94234e-25
2.65312e-24
3.03691e-17
-1.51788e-24
-1.56175e-24
3.03691e-17
-1.5397e-24
-1.77074e-25
3.03691e-17
-1.62687e-24
-2.62599e-25
3.03691e-17
-1.66666e-24
-2.69138e-25
3.03691e-17
-1.64433e-24
-1.34743e-25
3.03691e-17
-1.60827e-24
-2.01283e-25
3.03691e-17
-1.49986e-24
-1.5518e-25
3.03691e-17
-1.34887e-24
-9.94546e-26
3.03691e-17
-1.13676e-24
-4.85607e-26
3.03691e-17
-9.00398e-25
-6.42954e-27
3.03691e-17
-6.30214e-25
3.39787e-26
3.03691e-17
-3.67073e-25
6.02234e-26
3.03691e-17
-1.07632e-25
8.52858e-26
3.03691e-17
1.09527e-25
9.9891e-26
3.03691e-17
2.81603e-25
1.00032e-25
3.03691e-17
3.96323e-25
7.62008e-26
3.03691e-17
4.59698e-25
5.76365e-26
3.03691e-17
4.73009e-25
3.82667e-26
3.03691e-17
4.48828e-25
2.17523e-26
3.03691e-17
3.96676e-25
6.13457e-27
3.03691e-17
3.26599e-25
-9.93989e-27
3.03691e-17
2.52855e-25
-2.34377e-26
3.03691e-17
1.83115e-25
-3.93325e-26
3.03691e-17
1.22133e-25
-5.19224e-26
3.03691e-17
7.43165e-26
-6.56941e-26
3.03691e-17
3.8491e-26
-7.08771e-26
3.03691e-17
1.41251e-26
-7.37446e-26
3.03691e-17
-1.21821e-27
-6.50637e-26
3.03691e-17
-7.67466e-27
-5.55982e-26
3.03691e-17
-7.52648e-27
-4.15567e-26
3.03691e-17
-1.3876e-27
-3.0238e-26
3.03691e-17
6.60188e-27
-1.65347e-26
3.03691e-17
1.57393e-26
-7.4508e-27
3.03691e-17
2.32455e-26
2.06214e-27
3.03691e-17
2.81369e-26
4.88323e-27
3.03691e-17
3.05264e-26
6.78122e-27
3.03691e-17
3.06298e-26
4.56966e-27
3.03691e-17
3.0669e-26
4.35965e-27
3.03691e-17
3.22752e-26
-9.83952e-29
3.03691e-17
3.60446e-26
-6.94982e-27
3.03691e-17
4.40376e-26
-1.8642e-26
3.03691e-17
5.46556e-26
-2.52112e-26
3.03691e-17
7.26193e-26
-2.68151e-26
3.03691e-17
8.96305e-26
-1.76727e-26
3.03691e-17
1.1429e-25
-2.02656e-27
3.03691e-17
1.33903e-25
2.31282e-26
3.03691e-17
1.55978e-25
5.29822e-26
3.03691e-17
1.70899e-25
8.95023e-26
3.03691e-17
1.75978e-25
1.26456e-25
3.03691e-17
1.6509e-25
1.6537e-25
3.03691e-17
1.29173e-25
1.86476e-25
3.03691e-17
6.59629e-26
1.85811e-25
3.03691e-17
-3.31755e-26
1.63651e-25
3.03691e-17
-1.61489e-25
1.46249e-25
3.03691e-17
-3.30581e-25
1.14118e-25
3.03691e-17
-5.2063e-25
7.3358e-26
3.03691e-17
-7.45516e-25
-7.91873e-27
3.03691e-17
-9.47194e-25
-1.01289e-25
3.03691e-17
-1.13674e-24
-2.05628e-25
3.03691e-17
-1.26697e-24
-2.93917e-25
3.03691e-17
-1.33019e-24
-3.73334e-25
3.03691e-17
-1.29599e-24
-4.35727e-25
3.03691e-17
-1.12727e-24
-4.40122e-25
3.03691e-17
-8.04478e-25
-3.65493e-25
3.03691e-17
-3.2642e-25
-2.16053e-25
3.03691e-17
2.60396e-25
-5.90437e-26
3.03691e-17
9.52319e-25
5.43562e-26
3.03691e-17
1.64501e-24
1.35837e-25
3.03691e-17
2.27071e-24
2.03009e-25
3.03691e-17
2.75741e-24
2.53572e-25
3.03691e-17
3.0568e-24
3.02841e-25
3.03691e-17
3.12089e-24
3.40311e-25
3.03691e-17
2.9435e-24
3.63573e-25
3.03691e-17
2.5388e-24
3.08893e-25
3.03691e-17
1.95828e-24
2.02587e-25
3.03691e-17
1.27288e-24
6.94475e-26
3.03691e-17
5.49086e-25
-1.38773e-25
3.03691e-17
-8.09811e-26
-3.80342e-25
3.03691e-17
-5.62866e-25
-6.78682e-25
3.03691e-17
-8.51808e-25
-9.88771e-25
3.03691e-17
-8.9221e-25
-1.28654e-24
3.03691e-17
-6.36125e-25
-1.45417e-24
3.03691e-17
-6.48485e-26
-1.42681e-24
3.03691e-17
8.70569e-25
-1.36658e-24
3.03691e-17
2.24797e-24
-1.21656e-24
3.03691e-17
3.91177e-24
-9.54195e-25
3.03691e-17
6.0149e-24
-3.54362e-25
3.03691e-17
8.12975e-24
3.97757e-25
3.03691e-17
1.03407e-23
1.18907e-24
3.03691e-17
1.21744e-23
1.75061e-24
3.03691e-17
1.35334e-23
2.09422e-24
3.03691e-17
1.41764e-23
2.34329e-24
3.03691e-17
1.37862e-23
2.52065e-24
3.03691e-17
1.20958e-23
2.09621e-24
3.03691e-17
8.75203e-24
-2.6902e-25
3.03691e-17
4.92033e-24
1.89795e-24
1.93754e-24
5.96498e-24
3.6925e-17
1.58221e-25
1.38126e-24
3.6925e-17
-2.21216e-24
-3.81058e-24
3.6925e-17
2.6478e-25
2.77982e-24
3.6925e-17
-1.73012e-24
-1.55616e-24
3.6925e-17
-1.56701e-24
-2.1183e-26
3.6925e-17
-1.74898e-24
-1.79632e-25
3.6925e-17
-1.8383e-24
-1.75497e-25
3.6925e-17
-1.80443e-24
-2.20587e-26
3.6925e-17
-1.78334e-24
-8.09951e-26
3.6925e-17
-1.67372e-24
-4.38243e-26
3.6925e-17
-1.48832e-24
3.5222e-27
3.6925e-17
-1.24584e-24
3.14581e-26
3.6925e-17
-9.56042e-25
5.81788e-26
3.6925e-17
-6.48684e-25
7.90337e-26
3.6925e-17
-3.4547e-25
9.82332e-26
3.6925e-17
-7.33576e-26
1.18725e-25
3.6925e-17
1.61355e-25
1.35406e-25
3.6925e-17
3.42565e-25
1.26154e-25
3.6925e-17
4.61126e-25
9.72242e-26
3.6925e-17
5.17506e-25
6.54155e-26
3.6925e-17
5.25318e-25
2.80548e-26
3.6925e-17
4.97543e-25
-5.13915e-27
3.6925e-17
4.44447e-25
-2.49939e-26
3.6925e-17
3.75451e-25
-4.07373e-26
3.6925e-17
2.98003e-25
-5.69799e-26
3.6925e-17
2.26998e-25
-7.3215e-26
3.6925e-17
1.6025e-25
-8.99456e-26
3.6925e-17
1.07438e-25
-1.00503e-25
3.6925e-17
6.35913e-26
-1.04739e-25
3.6925e-17
3.25405e-26
-1.00677e-25
3.6925e-17
9.9071e-27
-8.92602e-26
3.6925e-17
-1.6685e-27
-7.20484e-26
3.6925e-17
-7.02159e-27
-5.26611e-26
3.6925e-17
-3.47083e-27
-3.319e-26
3.6925e-17
1.5229e-27
-1.61482e-26
3.6925e-17
9.81744e-27
-3.32801e-27
3.6925e-17
1.5875e-26
5.3853e-27
3.6925e-17
2.31583e-26
1.01082e-26
3.6925e-17
2.77242e-26
9.92672e-27
3.6925e-17
3.38901e-26
7.99038e-27
3.6925e-17
3.88918e-26
3.96644e-27
3.6925e-17
4.43186e-26
-3.79146e-27
3.6925e-17
4.64826e-26
-1.79476e-26
3.6925e-17
5.06889e-26
-3.35246e-26
3.6925e-17
5.79497e-26
-4.54582e-26
3.6925e-17
7.55865e-26
-4.71251e-26
3.6925e-17
9.69293e-26
-3.84719e-26
3.6925e-17
1.25451e-25
-1.77574e-26
3.6925e-17
1.50138e-25
1.10346e-26
3.6925e-17
1.73534e-25
4.98569e-26
3.6925e-17
1.84534e-25
9.6645e-26
3.6925e-17
1.82901e-25
1.55334e-25
3.6925e-17
1.58231e-25
2.14557e-25
3.6925e-17
1.10319e-25
2.56557e-25
3.6925e-17
2.97228e-26
2.65604e-25
3.6925e-17
-8.05982e-26
2.57353e-25
3.6925e-17
-2.22059e-25
2.45464e-25
3.6925e-17
-3.88675e-25
2.22402e-25
3.6925e-17
-5.96726e-25
1.70402e-25
3.6925e-17
-8.29993e-25
8.56056e-26
3.6925e-17
-1.06042e-24
-2.57057e-26
3.6925e-17
-1.25561e-24
-1.42549e-25
3.6925e-17
-1.39155e-24
-2.65309e-25
3.6925e-17
-1.43242e-24
-4.12055e-25
3.6925e-17
-1.34426e-24
-5.41653e-25
3.6925e-17
-1.09899e-24
-5.89516e-25
3.6925e-17
-6.64362e-25
-5.07474e-25
3.6925e-17
-1.02602e-25
-3.54852e-25
3.6925e-17
5.29952e-25
-2.00342e-25
3.6925e-17
1.20173e-24
-7.88814e-26
3.6925e-17
1.85779e-24
1.00631e-26
3.6925e-17
2.41523e-24
6.44325e-26
3.6925e-17
2.81612e-24
1.17437e-25
3.6925e-17
3.0083e-24
2.33361e-25
3.6925e-17
2.97354e-24
3.65805e-25
3.6925e-17
2.69385e-24
4.18072e-25
3.6925e-17
2.21795e-24
3.80373e-25
3.6925e-17
1.61654e-24
3.03199e-25
3.6925e-17
9.7012e-25
1.57074e-25
3.6925e-17
3.41549e-25
-8.43849e-26
3.6925e-17
-1.89963e-25
-4.2022e-25
3.6925e-17
-5.70637e-25
-8.46276e-25
3.6925e-17
-7.88365e-25
-1.34151e-24
3.6925e-17
-7.50181e-25
-1.8363e-24
3.6925e-17
-4.11473e-25
-2.1365e-24
3.6925e-17
1.74991e-25
-2.19696e-24
3.6925e-17
1.09329e-24
-2.19667e-24
3.6925e-17
2.39215e-24
-2.13283e-24
3.6925e-17
4.16454e-24
-1.81793e-24
3.69251e-17
6.37421e-24
-1.17096e-24
3.69251e-17
8.7994e-24
-2.49734e-25
3.6925e-17
1.11e-23
5.86028e-25
3.6925e-17
1.30225e-23
1.22458e-24
3.6925e-17
1.42758e-23
1.74078e-24
3.6925e-17
1.46736e-23
2.39798e-24
3.6925e-17
1.39655e-23
2.88472e-24
3.6925e-17
1.1457e-23
2.30627e-24
3.6925e-17
7.13363e-24
1.58043e-25
3.6925e-17
4.42105e-24
2.46761e-24
3.9959e-24
6.39226e-24
5.5016e-17
1.74086e-24
2.8452e-24
5.50161e-17
-2.13824e-24
-5.17705e-24
5.50161e-17
1.84888e-25
4.12772e-24
5.50161e-17
-1.2044e-24
-1.4311e-24
5.50161e-17
-1.48852e-24
-4.28751e-26
5.50161e-17
-1.62848e-24
-1.18948e-25
5.50161e-17
-1.85484e-24
-3.62797e-25
5.50161e-17
-1.9427e-24
-2.91345e-25
5.50161e-17
-1.94857e-24
-3.68669e-25
5.50161e-17
-1.83912e-24
-3.33704e-25
5.50161e-17
-1.62248e-24
-2.48828e-25
5.50161e-17
-1.32825e-24
-1.65486e-25
5.50161e-17
-9.84596e-25
-6.81937e-26
5.50161e-17
-6.2506e-25
2.82815e-26
5.50161e-17
-2.77356e-25
1.16629e-25
5.50161e-17
3.35629e-26
1.90842e-25
5.50161e-17
2.95169e-25
2.48204e-25
5.50161e-17
4.95627e-25
2.82976e-25
5.50161e-17
6.20884e-25
2.90422e-25
5.50161e-17
6.67438e-25
2.6207e-25
5.50161e-17
6.53112e-25
2.12346e-25
5.50161e-17
5.9874e-25
1.52633e-25
5.50161e-17
5.21992e-25
9.1595e-26
5.50161e-17
4.33444e-25
3.36635e-26
5.50161e-17
3.44789e-25
-1.95346e-26
5.50161e-17
2.61295e-25
-6.58008e-26
5.50161e-17
1.90085e-25
-1.02755e-25
5.50161e-17
1.2535e-25
-1.29173e-25
5.50161e-17
7.66769e-26
-1.40965e-25
5.50161e-17
3.79447e-26
-1.38733e-25
5.50161e-17
1.65179e-26
-1.21585e-25
5.50161e-17
4.22252e-27
-9.61302e-26
5.50161e-17
3.83233e-27
-6.51462e-26
5.50161e-17
8.20437e-27
-3.56195e-26
5.50161e-17
1.88817e-26
-9.30761e-27
5.50161e-17
2.78972e-26
1.05928e-26
5.50161e-17
3.92733e-26
2.4872e-26
5.50161e-17
4.44543e-26
3.09222e-26
5.50161e-17
5.01183e-26
3.07397e-26
5.50161e-17
5.0819e-26
2.42374e-26
5.50161e-17
5.20893e-26
1.29297e-26
5.50161e-17
5.06321e-26
-2.69257e-27
5.50161e-17
5.04383e-26
-2.12662e-26
5.50161e-17
4.95998e-26
-3.8725e-26
5.50161e-17
5.6297e-26
-4.96823e-26
5.50161e-17
6.76855e-26
-5.0725e-26
5.50161e-17
9.13075e-26
-3.7064e-26
5.50161e-17
1.19174e-25
-7.71174e-27
5.50161e-17
1.55248e-25
3.79418e-26
5.50161e-17
1.87377e-25
9.76455e-26
5.50161e-17
2.13799e-25
1.70556e-25
5.50161e-17
2.19657e-25
2.49693e-25
5.50161e-17
2.04897e-25
3.26785e-25
5.50161e-17
1.59342e-25
3.82517e-25
5.50161e-17
8.24281e-26
4.05275e-25
5.50161e-17
-2.94753e-26
4.00362e-25
5.50161e-17
-1.6943e-25
3.68374e-25
5.50161e-17
-3.44631e-25
3.00786e-25
5.50161e-17
-5.71903e-25
1.83229e-25
5.50161e-17
-8.49949e-25
2.2135e-27
5.50161e-17
-1.15332e-24
-2.25983e-25
5.50161e-17
-1.43519e-24
-4.69675e-25
5.50161e-17
-1.64236e-24
-7.07788e-25
5.50161e-17
-1.72953e-24
-9.12941e-25
5.50161e-17
-1.64189e-24
-1.05176e-24
5.50161e-17
-1.34724e-24
-1.08265e-24
5.50161e-17
-8.52104e-25
-9.59705e-25
5.50161e-17
-2.07449e-25
-7.02642e-25
5.50161e-17
5.309e-25
-3.85266e-25
5.50161e-17
1.29432e-24
-2.69304e-26
5.50161e-17
2.03195e-24
3.28831e-25
5.50161e-17
2.67206e-24
6.53522e-25
5.50161e-17
3.14879e-24
9.36895e-25
5.50161e-17
3.38042e-24
1.18012e-24
5.50161e-17
3.31364e-24
1.34166e-24
5.50161e-17
2.94932e-24
1.37403e-24
5.50161e-17
2.36975e-24
1.25552e-24
5.5016e-17
1.68227e-24
9.87535e-25
5.5016e-17
9.5224e-25
5.81907e-25
5.5016e-17
2.69447e-25
5.69572e-26
5.5016e-17
-3.2837e-25
-5.95544e-25
5.5016e-17
-8.05147e-25
-1.37276e-24
5.50161e-17
-1.12033e-24
-2.20293e-24
5.50161e-17
-1.20819e-24
-2.94299e-24
5.50161e-17
-1.01694e-24
-3.43424e-24
5.50161e-17
-5.35708e-25
-3.61465e-24
5.50161e-17
3.10318e-25
-3.55296e-24
5.50161e-17
1.62672e-24
-3.17251e-24
5.50161e-17
3.54282e-24
-2.3371e-24
5.50161e-17
6.0831e-24
-9.2605e-25
5.50161e-17
9.06002e-24
9.59281e-25
5.50161e-17
1.2111e-23
2.91487e-24
5.50161e-17
1.48016e-23
4.67862e-24
5.50161e-17
1.67226e-23
6.09688e-24
5.50161e-17
1.74652e-23
7.1414e-24
5.5016e-17
1.66519e-23
7.6214e-24
5.5016e-17
1.39159e-23
6.95108e-24
5.5016e-17
9.55383e-24
4.06309e-24
5.5016e-17
4.94357e-24
4.2235e-24
1.56764e-24
5.18108e-24
6.04464e-17
-1.54339e-24
-2.95112e-25
6.04464e-17
2.03003e-24
-2.94524e-24
6.04464e-17
-1.15277e-24
3.94085e-24
6.04464e-17
-3.7342e-25
-2.02125e-24
6.04464e-17
-7.57458e-25
-3.59709e-25
6.04464e-17
-1.16651e-24
-4.981e-25
6.04464e-17
-1.35943e-24
-7.89159e-25
6.04464e-17
-1.54209e-24
-7.33765e-25
6.04464e-17
-1.58494e-24
-7.94708e-25
6.04464e-17
-1.51284e-24
-7.11908e-25
6.04464e-17
-1.33662e-24
-5.63912e-25
6.04464e-17
-1.07514e-24
-4.07302e-25
6.04464e-17
-7.65179e-25
-2.34808e-25
6.04464e-17
-4.44735e-25
-6.87283e-26
6.04464e-17
-1.35273e-25
8.56568e-26
6.04464e-17
1.45657e-25
2.20166e-25
6.04464e-17
3.7423e-25
3.26624e-25
6.04464e-17
5.4119e-25
3.91307e-25
6.04464e-17
6.35243e-25
4.24425e-25
6.04464e-17
6.516e-25
4.17144e-25
6.04464e-17
6.13274e-25
3.70958e-25
6.04464e-17
5.41917e-25
2.97435e-25
6.04464e-17
4.54426e-25
2.12925e-25
6.04464e-17
3.64018e-25
1.27174e-25
6.04464e-17
2.81264e-25
4.603e-26
6.04464e-17
2.08189e-25
-2.56134e-26
6.04464e-17
1.4514e-25
-8.18499e-26
6.04464e-17
9.33423e-26
-1.21282e-25
6.04464e-17
5.3498e-26
-1.40881e-25
6.04464e-17
2.67386e-26
-1.43392e-25
6.04464e-17
1.16963e-26
-1.29245e-25
6.04464e-17
6.54393e-27
-1.0265e-25
6.04464e-17