/*--------------------------------*- C++ -*----------------------------------*\
| =========                 |                                                 |
| \\      /  F ield         | OpenFOAM: The Open Source CFD Toolbox           |
|  \\    /   O peration     | Version:  2412                                  |
|   \\  /    A nd           | Website:  www.openfoam.com                      |
|    \\/     M anipulation  |                                                 |
\*---------------------------------------------------------------------------*/
FoamFile
{
    version     2.0;
    format      ascii;
    arch        "LSB;label=32;scalar=64";
    class       surfaceScalarField;
    location    "200";
    object      phi;
}
// * * * * * * * * * * * * * * * * * * * * * * * * * * * * * * * * * * * * * //

dimensions      [0 3 -1 0 0 0 0];

oriented        oriented;

internalField   nonuniform List<scalar> 
9663
(
5.45268e-18
2.30362e-24
4.1283e-23
5.45269e-18
-8.27387e-25
-2.16306e-23
5.45268e-18
1.62334e-24
7.08186e-24
5.45269e-18
3.78164e-25
-5.82735e-24
5.45269e-18
5.0564e-25
-6.63002e-25
5.45269e-18
4.41538e-25
-6.05431e-26
5.45269e-18
2.63837e-25
-1.27725e-24
5.45269e-18
2.09036e-25
-4.71047e-25
5.45269e-18
1.41136e-25
-3.93651e-25
5.45269e-18
9.84069e-26
-4.56971e-25
5.45269e-18
8.37821e-26
-3.37695e-25
5.45269e-18
6.95815e-26
-2.88148e-25
5.45269e-18
6.11139e-26
-2.51446e-25
5.45269e-18
5.32941e-26
-2.18839e-25
5.4527e-18
4.66419e-26
-1.86218e-25
5.4527e-18
4.10831e-26
-1.65088e-25
5.4527e-18
3.64882e-26
-1.45163e-25
5.4527e-18
3.30827e-26
-1.29804e-25
5.4527e-18
2.97691e-26
-1.2105e-25
5.4527e-18
2.73735e-26
-1.09276e-25
5.4527e-18
2.51538e-26
-1.02763e-25
5.4527e-18
2.29293e-26
-9.24887e-26
5.4527e-18
2.0942e-26
-8.84646e-26
5.4527e-18
1.94399e-26
-7.9665e-26
5.4527e-18
1.79364e-26
-7.54192e-26
5.4527e-18
1.71136e-26
-6.82008e-26
5.4527e-18
1.62856e-26
-6.43261e-26
5.4527e-18
1.60185e-26
-6.48294e-26
5.4527e-18
1.54027e-26
-6.14935e-26
5.4527e-18
1.47588e-26
-5.4931e-26
5.4527e-18
1.36476e-26
-4.8704e-26
5.4527e-18
1.3342e-26
-4.23843e-26
5.4527e-18
1.22481e-26
-4.29163e-26
5.4527e-18
1.19013e-26
-3.63499e-26
5.4527e-18
1.03587e-26
-3.55941e-26
5.4527e-18
1.02596e-26
-3.52634e-26
5.4527e-18
1.00986e-26
-3.97902e-26
5.4527e-18
1.07853e-26
-3.35126e-26
5.4527e-18
9.2767e-27
-3.08211e-26
5.4527e-18
9.07501e-27
-2.34742e-26
5.4527e-18
7.55673e-27
-2.30883e-26
5.4527e-18
8.14049e-27
-2.6907e-26
5.4527e-18
7.69813e-27
-2.38782e-26
5.4527e-18
7.01625e-27
-1.49877e-26
5.4527e-18
5.36109e-27
-9.29808e-27
5.4527e-18
5.23337e-27
-1.84701e-27
5.4527e-18
3.80974e-27
-7.52991e-27
5.4527e-18
4.18846e-27
-2.08131e-28
5.4527e-18
2.11363e-27
-4.3225e-27
5.4527e-18
2.90743e-27
-4.61284e-27
5.4527e-18
2.63819e-27
-1.49539e-26
5.4527e-18
4.31193e-27
-6.43906e-27
5.4527e-18
2.75142e-27
-8.16345e-27
5.4527e-18
3.10024e-27
3.02994e-27
5.4527e-18
9.76606e-28
-2.73556e-27
5.4527e-18
2.00418e-27
-1.80203e-27
5.4527e-18
1.72311e-27
-1.45552e-26
5.4527e-18
3.53166e-27
-3.88179e-27
5.4527e-18
2.01685e-27
-7.72604e-27
5.4527e-18
2.74702e-27
4.22708e-27
5.4527e-18
1.57475e-28
-1.04038e-27
5.4527e-18
7.42226e-28
2.84394e-27
5.4527e-18
-6.53807e-28
-5.49586e-27
5.4527e-18
1.0936e-27
-2.14407e-27
5.4527e-18
9.19368e-29
-8.5834e-27
5.4527e-18
1.88246e-27
-4.52069e-27
5.4527e-18
7.79581e-28
-1.03451e-26
5.4527e-18
2.34834e-27
-6.94035e-27
5.4527e-18
1.22708e-27
-1.24683e-26
5.4527e-18
2.69368e-27
-9.326e-27
5.4527e-18
1.55114e-27
-1.43669e-26
5.4527e-18
2.98789e-27
-1.07392e-26
5.4527e-18
2.20726e-27
-1.72568e-26
5.4527e-18
4.30087e-27
-1.73926e-26
5.4527e-18
4.42471e-27
-2.58959e-26
5.4527e-18
5.97242e-27
-1.58759e-26
5.4527e-18
3.90702e-27
-1.59086e-26
5.4527e-18
3.8972e-27
-5.12587e-27
5.4527e-18
1.53833e-27
-9.44088e-27
5.4527e-18
2.25249e-27
-9.43557e-27
5.4527e-18
2.30588e-27
-1.77404e-26
5.4527e-18
3.56142e-27
-8.30673e-27
5.4527e-18
1.80102e-27
-7.45163e-27
5.4527e-18
1.53954e-27
3.10424e-27
5.4527e-18
-7.5644e-28
-8.38042e-28
5.4527e-18
-4.42903e-28
-3.76713e-28
5.4527e-18
-3.50531e-28
-8.41791e-27
5.4527e-18
9.12299e-28
1.26145e-27
5.4527e-18
-6.88112e-28
1.10641e-27
5.4527e-18
-5.96953e-28
1.10307e-26
5.4527e-18
-2.85229e-27
7.81259e-27
5.4527e-18
-2.75317e-27
1.03938e-26
5.4527e-18
-3.68701e-27
3.57309e-27
5.4527e-18
-2.18739e-27
6.23346e-27
5.4527e-18
-2.68756e-27
3.44243e-27
5.4527e-18
-1.72619e-27
3.2861e-27
5.4527e-18
-1.96914e-27
6.99595e-27
5.4527e-18
-1.69687e-27
3.21138e-27
5.4527e-18
-8.81874e-28
-9.91374e-27
-1.20254e-29
-4.67173e-27
7.7234e-18
-1.6013e-24
6.14343e-23
7.72342e-18
1.31641e-24
-4.50529e-23
7.72342e-18
-6.63933e-25
1.75982e-23
7.72342e-18
3.17066e-25
-5.50213e-24
7.72343e-18
1.72656e-25
-6.961e-25
7.72343e-18
8.69701e-26
7.13294e-25
7.72343e-18
1.11711e-25
-1.24302e-24
7.72343e-18
5.38627e-26
-2.6414e-25
7.72343e-18
3.73468e-26
-2.28549e-25
7.72343e-18
2.47208e-26
-3.82396e-25
7.72343e-18
2.41479e-26
-2.67967e-25
7.72343e-18
2.2124e-26
-2.17973e-25
7.72343e-18
2.24249e-26
-1.94954e-25
7.72343e-18
1.99665e-26
-1.6769e-25
7.72343e-18
1.94078e-26
-1.43311e-25
7.72343e-18
1.70116e-26
-1.24532e-25
7.72343e-18
1.57485e-26
-1.11366e-25
7.72343e-18
1.36635e-26
-9.58988e-26
7.72343e-18
1.23655e-26
-9.21006e-26
7.72343e-18
1.13379e-26
-8.09598e-26
7.72343e-18
1.0021e-26
-7.82661e-26
7.72343e-18
9.30851e-27
-6.84658e-26
7.72343e-18
8.25899e-27
-6.84311e-26
7.72343e-18
8.21434e-27
-6.02101e-26
7.72343e-18
7.50436e-27
-5.92953e-26
7.72344e-18
7.74365e-27
-5.12857e-26
7.72344e-18
6.78031e-27
-5.28868e-26
7.72344e-18
7.51183e-27
-4.79e-26
7.72344e-18
6.84011e-27
-4.96665e-26
7.72344e-18
7.30931e-27
-4.09608e-26
7.72344e-18
6.65471e-27
-3.78041e-26
7.72344e-18
6.86915e-27
-3.23287e-26
7.72344e-18
6.3486e-27
-3.31861e-26
7.72344e-18
6.00948e-27
-2.69042e-26
7.72344e-18
4.80225e-27
-2.76825e-26
7.72344e-18
4.83558e-27
-2.64607e-26
7.72344e-18
5.15137e-27
-3.24339e-26
7.72344e-18
5.60035e-27
-2.5985e-26
7.72344e-18
4.75908e-27
-2.4516e-26
7.72344e-18
4.31764e-27
-1.5601e-26
7.72344e-18
2.61526e-27
-2.09419e-26
7.72344e-18
3.5576e-27
-1.46764e-26
7.72344e-18
2.75018e-27
-2.12956e-26
7.72344e-18
3.5577e-27
-8.42505e-27
7.72344e-18
2.59149e-27
-7.63864e-27
7.72344e-18
2.71281e-27
1.24272e-27
7.72344e-18
2.27855e-27
-5.16453e-27
7.72344e-18
1.66079e-27
2.85682e-27
7.72344e-18
3.82661e-28
-3.21448e-27
7.72344e-18
-1.97916e-29
-1.81775e-28
7.72344e-18
9.90856e-28
-1.29989e-26
7.72344e-18
1.69082e-27
-3.01393e-27
7.72344e-18
1.51161e-27
-6.06265e-27
7.72344e-18
8.81072e-28
5.61873e-27
7.72344e-18
-5.03431e-28
-3.2246e-27
7.72344e-18
-7.8592e-28
2.85504e-27
7.72344e-18
3.0163e-28
-1.37585e-26
7.72344e-18
1.31594e-27
-2.8212e-28
7.72344e-18
1.15315e-27
-6.55171e-27
7.72344e-18
1.00731e-27
7.17609e-27
7.72344e-18
-1.54109e-28
-4.50945e-27
7.72344e-18
-5.64226e-28
5.25488e-27
7.72344e-18
-8.5913e-28
-8.81997e-27
7.72344e-18
-6.66629e-28
1.23407e-27
7.72344e-18
-5.526e-28
-1.06144e-26
7.72344e-18
-4.11082e-28
-7.07746e-28
7.72344e-18
-2.52501e-28
-1.21321e-26
7.72344e-18
-2.29427e-28
-2.84528e-27
7.72344e-18
-2.75032e-29
-1.3793e-26
7.72344e-18
-5.9337e-29
-5.30435e-27
7.72344e-18
5.07699e-29
-1.48966e-26
7.72344e-18
-4.23216e-29
-7.10252e-27
7.72344e-18
-1.79327e-28
-1.73523e-26
7.72344e-18
5.14826e-28
-1.19488e-26
7.72344e-18
1.51125e-27
-2.39034e-26
7.72344e-18
2.89644e-27
-1.21947e-26
7.72344e-18
2.2155e-27
-1.33572e-26
7.72344e-18
1.78241e-27
-1.98644e-27
7.72344e-18
-1.71976e-28
-1.00726e-26
7.72344e-18
1.04006e-28
-6.04487e-27
7.72344e-18
6.85433e-28
-1.72612e-26
7.72344e-18
2.01221e-27
-6.74468e-27
7.72344e-18
1.43681e-27
-5.67618e-27
7.72344e-18
7.17198e-28
3.96976e-27
7.72344e-18
-1.12738e-27
-1.81019e-27
7.72344e-18
-1.09557e-27
1.44959e-27
7.72344e-18
-6.04942e-28
-8.80572e-27
7.72344e-18
7.32103e-28
1.85772e-27
7.72344e-18
6.78125e-28
6.65857e-28
7.72344e-18
2.12474e-28
1.05338e-26
7.72344e-18
-1.3368e-27
5.21713e-27
7.72344e-18
-1.6756e-27
1.04482e-26
7.72344e-18
-2.36234e-27
7.64596e-28
7.72344e-18
-1.80909e-27
7.32484e-27
7.72344e-18
-2.22843e-27
2.75488e-28
7.72344e-18
-2.20639e-27
3.47206e-27
7.72344e-18
-3.46935e-27
8.60364e-27
7.72344e-18
-2.0038e-27
-4.2823e-27
7.72344e-18
-2.73753e-27
-1.62597e-26
-1.03565e-27
9.34175e-28
5.45268e-18
4.02492e-23
5.45269e-18
-2.11679e-23
5.45268e-18
7.93788e-24
5.45269e-18
-5.21048e-24
5.45269e-18
-2.95412e-25
5.45269e-18
1.15376e-25
5.45269e-18
-1.16551e-24
5.45269e-18
-3.52175e-25
5.45269e-18
-3.47313e-25
5.45269e-18
-4.22988e-25
5.45269e-18
-3.03251e-25
5.45269e-18
-2.46159e-25
5.45269e-18
-2.13409e-25
5.45269e-18
-1.8254e-25
5.4527e-18
-1.51751e-25
5.4527e-18
-1.36207e-25
5.4527e-18
-1.14887e-25
5.4527e-18
-1.07093e-25
5.4527e-18
-9.13839e-26
5.4527e-18
-8.85641e-26
5.4527e-18
-7.7576e-26
5.4527e-18
-7.6602e-26
5.4527e-18
-6.82698e-26
5.4527e-18
-6.63216e-26
5.4527e-18
-5.94471e-26
5.4527e-18
-5.74417e-26
5.4527e-18
-5.399e-26
5.4527e-18
-5.36375e-26
5.4527e-18
-5.00626e-26
5.4527e-18
-4.51645e-26
5.4527e-18
-3.83581e-26
5.4527e-18
-3.59921e-26
5.4527e-18
-3.27896e-26
5.4527e-18
-3.06238e-26
5.4527e-18
-2.95332e-26
5.4527e-18
-3.35001e-26
5.4527e-18
-3.17811e-26
5.4527e-18
-3.01273e-26
5.4527e-18
-2.28542e-26
5.4527e-18
-2.19699e-26
5.4527e-18
-2.04074e-26
5.4527e-18
-2.40452e-26
5.4527e-18
-1.86006e-26
5.4527e-18
-1.38152e-26
5.4527e-18
-3.23915e-27
5.4527e-18
-3.69121e-27
5.4527e-18
-5.66642e-28
5.4527e-18
-1.05063e-27
5.4527e-18
-6.86751e-28
5.4527e-18
-1.06225e-26
5.4527e-18
-7.60701e-27
5.4527e-18
-9.64722e-27
5.4527e-18
4.65533e-28
5.4527e-18
-2.12139e-27
5.4527e-18
1.99593e-27
5.4527e-18
-1.15477e-26
5.4527e-18
-5.18138e-27
5.4527e-18
-8.84287e-27
5.4527e-18
3.28123e-27
5.4527e-18
-1.36793e-27
5.4527e-18
4.57436e-27
5.4527e-18
-3.75624e-27
5.4527e-18
-2.75569e-28
5.4527e-18
-7.28815e-27
5.4527e-18
-3.33168e-27
5.4527e-18
-9.50281e-27
5.4527e-18
-5.44964e-27
5.4527e-18
-1.11559e-26
5.4527e-18
-7.76283e-27
5.4527e-18
-1.28607e-26
5.4527e-18
-9.19611e-27
5.4527e-18
-1.47452e-26
5.4527e-18
-1.26516e-26
5.4527e-18
-2.2881e-26
5.4527e-18
-1.7092e-26
5.4527e-18
-1.71092e-26
5.4527e-18
-6.35288e-27
5.4527e-18
-7.63455e-27
5.4527e-18
-5.64328e-27
5.4527e-18
-1.43423e-26
5.4527e-18
-1.1129e-26
5.4527e-18
-9.02356e-27
5.4527e-18
-3.34152e-28
5.4527e-18
4.71356e-28
5.4527e-18
1.51105e-27
5.4527e-18
-6.27045e-27
5.4527e-18
-3.03162e-27
5.4527e-18
-1.15661e-27
5.4527e-18
7.48501e-27
5.4527e-18
7.65679e-27
5.4527e-18
1.04752e-26
5.4527e-18
5.48561e-27
5.4527e-18
6.22845e-27
5.4527e-18
2.19061e-27
5.4527e-18
5.28886e-27
5.4527e-18
-1.31157e-27
5.4527e-18
7.02849e-27
5.4527e-18
-9.85567e-28
5.4527e-18
-1.25787e-26
-2.47834e-27
6.77808e-18
3.37622e-23
3.64888e-23
6.7781e-18
-1.8568e-23
-1.73869e-23
6.77809e-18
5.85859e-24
8.50395e-24
6.7781e-18
-4.43771e-24
-3.12148e-24
6.7781e-18
-2.80685e-25
7.95406e-25
6.7781e-18
1.68382e-25
8.63647e-25
6.7781e-18
-7.17434e-25
-2.33539e-25
6.7781e-18
-8.74702e-26
1.51499e-25
6.7781e-18
-1.13291e-25
1.25058e-25
6.7781e-18
-2.10084e-25
-3.53617e-26
6.7781e-18
-1.47063e-25
3.73633e-26
6.7781e-18
-1.36466e-25
1.51045e-26
6.7781e-18
-1.25403e-25
2.28974e-26
6.7781e-18
-1.10851e-25
1.0495e-26
6.7781e-18
-9.47423e-26
1.8313e-26
6.7781e-18
-8.32376e-26
1.12075e-26
6.7781e-18
-7.18514e-26
8.02356e-27
6.77811e-18
-6.06968e-26
6.41323e-27
6.77811e-18
-5.47335e-26
-7.55489e-27
6.77811e-18
-4.43305e-26
-1.49686e-27
6.77811e-18
-3.97868e-26
-1.35842e-26
6.77811e-18
-3.38914e-26
-3.33649e-27
6.77811e-18
-3.36913e-26
-1.52396e-26
6.77811e-18
-3.00512e-26
-3.30242e-27
6.77811e-18
-2.9373e-26
-1.03413e-26
6.77811e-18
-2.62842e-26
1.5537e-27
6.77811e-18
-2.42071e-26
-7.85843e-27
6.77811e-18
-2.7093e-26
-8.57332e-28
6.77811e-18
-2.46439e-26
-9.75556e-27
6.77811e-18
-2.18868e-26
2.07284e-27
6.77811e-18
-1.84092e-26
-3.31298e-27
6.77811e-18
-1.44039e-26
5.5248e-27
6.77811e-18
-1.59215e-26
-5.10697e-27
6.77811e-18
-1.14657e-26
4.56366e-27
6.77811e-18
-1.24287e-26
-4.19373e-27
6.77811e-18
-1.37839e-26
4.64085e-27
6.77811e-18
-1.89565e-26
-5.74428e-27
6.77811e-18
-1.5357e-26
8.82598e-27
6.77811e-18
-1.53183e-26
1.70956e-28
6.77811e-18
-9.96942e-27
1.31017e-26
6.77811e-18
-7.81899e-27
-3.85997e-27
6.77811e-18
-1.12749e-26
5.44893e-27
6.77811e-18
-7.04542e-27
-7.88217e-27
6.77811e-18
-3.51158e-27
1.14443e-26
6.77811e-18
-5.0677e-28
2.43932e-29
6.77811e-18
3.74256e-27
1.30711e-26
6.77811e-18
2.34e-28
-5.92467e-27
6.77811e-18
6.42143e-27
7.98786e-27
6.77811e-18
3.83505e-27
-6.01064e-27
6.77811e-18
1.71049e-27
6.85922e-27
6.77811e-18
-7.60397e-27
-9.62063e-27
6.77811e-18
-2.79273e-27
1.21211e-26
6.77811e-18
-4.55462e-27
-3.67831e-27
6.77811e-18
4.32178e-27
1.43636e-26
6.77811e-18
2.1006e-27
-6.90589e-27
6.77811e-18
1.98964e-27
9.97994e-27
6.77811e-18
-7.6667e-27
-1.36876e-26
6.77811e-18
-7.71729e-28
1.29702e-26
6.77811e-18
-2.68776e-27
-7.76663e-27
6.77811e-18
6.59969e-27
1.42117e-26
6.77811e-18
4.67774e-27
-1.0678e-26
6.77811e-18
7.63868e-27
7.85703e-27
6.77811e-18
2.81142e-27
-1.40816e-26
6.77811e-18
4.84237e-27
4.94072e-27
6.77811e-18
1.10382e-27
-1.33004e-26
6.77811e-18
3.43538e-27
5.3838e-27
6.77811e-18
4.79818e-30
-1.24306e-26
6.77811e-18
1.77728e-27
5.6786e-27
6.77811e-18
-1.5669e-27
-1.21516e-26
6.77811e-18
-4.32793e-29
5.35037e-27
6.77811e-18
-3.45253e-27
-1.10285e-26
6.77811e-18
-1.35687e-27
6.68061e-27
6.77811e-18
-5.83257e-27
-1.03626e-26
6.77811e-18
-7.41109e-27
8.14321e-27
6.77811e-18
-1.44447e-26
-1.13808e-26
6.77811e-18
-7.98825e-27
1.33487e-26
6.77811e-18
-8.6356e-27
-4.29608e-27
6.77811e-18
-4.2194e-28
1.35537e-26
6.77811e-18
-1.58847e-27
-8.25009e-27
6.77811e-18
-2.60723e-27
7.47532e-27
6.77811e-18
-9.0658e-27
-1.13554e-26
6.77811e-18
-3.91844e-27
1.0262e-26
6.77811e-18
-3.96581e-27
-3.8603e-27
6.77811e-18
3.78161e-27
1.01445e-26
6.77811e-18
2.64212e-27
-8.63085e-27
6.77811e-18
2.07248e-27
4.58098e-27
6.77811e-18
-3.71183e-27
-1.17986e-26
6.77811e-18
1.55278e-27
8.60307e-27
6.77811e-18
6.6763e-28
-5.79229e-27
6.77811e-18
8.85768e-27
8.23886e-27
6.77811e-18
9.01216e-27
-1.15705e-26
6.77811e-18
1.14746e-26
1.68045e-27
6.77811e-18
7.53851e-27
-1.62638e-26
6.77811e-18
8.9873e-27
4.85227e-28
6.77811e-18
7.2455e-27
-1.29222e-26
6.77811e-18
4.7713e-27
1.30721e-27
6.77811e-18
7.32461e-27
-6.2566e-27
6.77811e-18
1.51034e-27
6.89691e-27
6.77811e-18
-5.2325e-27
-1.1393e-26
-1.95136e-27
3.16988e-27
1.56758e-17
1.6933e-23
2.23023e-23
1.56759e-17
-2.33492e-23
-5.16057e-23
1.56759e-17
1.19969e-23
2.70469e-23
1.56759e-17
1.59615e-24
-4.47961e-24
1.56759e-17
8.50188e-25
2.02515e-24
1.56759e-17
1.57834e-24
4.09037e-24
1.56759e-17
6.69373e-25
8.37872e-25
1.56759e-17
6.75362e-25
1.39718e-24
1.56759e-17
4.85245e-25
1.23179e-24
1.56759e-17
3.036e-25
7.63571e-25
1.56759e-17
2.50308e-25
6.89674e-25
1.56759e-17
2.14703e-25
6.0455e-25
1.56759e-17
1.81625e-25
5.13838e-25
1.56759e-17
1.61533e-25
4.41941e-25
1.56759e-17
1.40025e-25
3.86627e-25
1.56759e-17
1.27298e-25
3.36925e-25
1.56759e-17
1.11764e-25
2.9201e-25
1.56759e-17
1.05677e-25
2.58148e-25
1.56759e-17
9.45406e-26
2.22399e-25
1.56759e-17
9.00508e-26
2.00505e-25
1.56759e-17
8.17746e-26
1.71606e-25
1.56759e-17
7.65039e-26
1.6043e-25
1.56759e-17
6.74166e-26
1.4138e-25
1.56759e-17
6.31831e-26
1.36039e-25
1.56759e-17
5.57868e-26
1.21217e-25
1.56759e-17
5.45639e-26
1.18332e-25
1.56759e-17
4.69083e-26
1.05048e-25
1.56759e-17
5.16013e-26
1.082e-25
1.56759e-17
4.52609e-26
1.00394e-25
1.56759e-17
4.60782e-26
1.00229e-25
1.56759e-17
4.10083e-26
8.68096e-26
1.56759e-17
3.89054e-26
8.09071e-26
1.56759e-17
3.68559e-26
7.23994e-26
1.56759e-17
3.54715e-26
7.22493e-26
1.56759e-17
3.12066e-26
6.51197e-26
1.56759e-17
3.1404e-26
6.90249e-26
1.56759e-17
2.97534e-26
6.86989e-26
1.56759e-17
2.97591e-26
7.40967e-26
1.56759e-17
2.6111e-26
6.54528e-26
1.56759e-17
2.62293e-26
6.31074e-26
1.56759e-17
1.83229e-26
4.69508e-26
1.56759e-17
2.94813e-26
5.49372e-26
1.56759e-17
1.86347e-26
4.2183e-26
1.56759e-17
2.11363e-26
4.33192e-26
1.56759e-17
1.47465e-26
2.56636e-26
1.56759e-17
1.30305e-26
2.38071e-26
1.56759e-17
1.33177e-26
1.21361e-26
1.56759e-17
1.105e-26
1.5711e-26
1.56759e-17
8.22729e-27
5.60027e-27
1.56759e-17
9.70695e-27
1.6686e-26
1.56759e-17
9.10098e-27
1.89013e-26
1.56759e-17
9.89387e-27
3.11889e-26
1.56759e-17
9.91564e-27
1.98344e-26
1.56759e-17
5.72225e-27
2.06031e-26
1.56759e-17
3.89344e-27
3.89114e-27
1.56759e-17
7.05157e-27
1.62721e-26
1.56759e-17
7.05924e-27
1.50604e-26
1.56759e-17
8.20064e-27
2.76579e-26
1.56759e-17
8.94257e-27
1.09066e-26
1.56759e-17
5.78415e-27
1.36208e-26
1.56759e-17
6.80699e-28
-8.94486e-27
1.56759e-17
2.73216e-27
2.12501e-27
1.56759e-17
-3.94794e-28
-9.94649e-27
1.56759e-17
4.7082e-27
6.79018e-27
1.56759e-17
2.04556e-27
-3.48519e-27
1.56759e-17
6.93697e-27
1.18565e-26
1.56759e-17
3.05224e-27
8.8513e-28
1.56759e-17
8.36457e-27
1.58165e-26
1.56759e-17
3.85159e-27
5.40379e-27
1.56759e-17
9.13318e-27
2.00003e-26
1.56759e-17
4.87393e-27
1.07297e-26
1.56759e-17
8.96155e-27
2.3569e-26
1.56759e-17
6.20297e-27
1.66086e-26
1.56759e-17
1.3558e-26
3.47491e-26
1.56759e-17
1.2666e-26
3.46882e-26
1.56759e-17
1.44971e-26
4.67392e-26
1.56759e-17
1.31272e-26
3.11142e-26
1.56759e-17
9.86099e-27
2.93519e-26
1.56759e-17
5.01595e-27
1.01703e-26
1.56759e-17
8.22881e-27
1.96737e-26
1.56759e-17
7.10715e-27
1.82477e-26
1.56759e-17
7.80174e-27
2.80063e-26
1.56759e-17
7.79541e-27
1.48099e-26
1.56759e-17
2.55351e-27
9.98391e-27
1.56759e-17
-3.82554e-29
-6.69198e-27
1.56759e-17
6.71229e-28
8.34063e-29
1.56759e-17
1.1513e-27
-2.49317e-28
1.56759e-17
7.78662e-28
6.90045e-27
1.56759e-17
5.51972e-28
-5.74202e-27
1.56759e-17
-2.77396e-27
-9.69838e-27
1.56759e-17
-5.72786e-27
-2.72507e-26
1.56759e-17
-5.71952e-27
-2.28096e-26
1.56759e-17
-7.03892e-27
-3.18663e-26
1.56759e-17
-4.39936e-27
-1.90519e-26
1.56759e-17
-7.07273e-27
-2.5023e-26
1.56759e-17
-4.87429e-27
-1.71819e-26
1.56759e-17
-3.67765e-27
-1.0181e-26
1.56759e-17
-1.73979e-26
-1.81625e-26
1.56759e-17
-1.22464e-26
-2.32867e-26
2.70103e-27
-5.23119e-27
1.83948e-17
-1.65443e-23
-1.13417e-23
1.8395e-17
2.60722e-23
-1.34571e-23
1.83949e-17
-8.52842e-24
3.07874e-23
1.83949e-17
1.35322e-24
-1.10546e-23
1.83949e-17
1.60522e-24
4.77615e-24
1.83949e-17
1.6899e-25
5.223e-24
1.83949e-17
5.68382e-25
5.56007e-25
1.83949e-17
3.06145e-25
1.6911e-24
1.83949e-17
1.44379e-25
1.40785e-24
1.83949e-17
1.59582e-25
8.78962e-25
1.83949e-17
1.26222e-25
7.85816e-25
1.83949e-17
1.15973e-25
7.05496e-25
1.83949e-17
1.15576e-25
5.94462e-25
1.83949e-17
1.03153e-25
5.0614e-25
1.83949e-17
9.72154e-26
4.48784e-25
1.83949e-17
8.17422e-26
3.79133e-25
1.83949e-17
7.94122e-26
3.43691e-25
1.83949e-17
6.21017e-26
2.85118e-25
1.83949e-17
6.62936e-26
2.70072e-25
1.83949e-17
5.2049e-26
2.21139e-25
1.83949e-17
5.3867e-26
2.12725e-25
1.83949e-17
4.0822e-26
1.77691e-25
1.83949e-17
4.45237e-26
1.76974e-25
1.83949e-17
3.62353e-26
1.52768e-25
1.83949e-17
3.87984e-26
1.51207e-25
1.83949e-17
3.18484e-26
1.31619e-25
1.83949e-17
3.48613e-26
1.34707e-25
1.83949e-17
2.99654e-26
1.22721e-25
1.83949e-17
3.39251e-26
1.24954e-25
1.83949e-17
2.9216e-26
1.10073e-25
1.83949e-17
3.05059e-26
1.06453e-25
1.83949e-17
2.70457e-26
9.06213e-26
1.83949e-17
2.86755e-26
9.20748e-26
1.83949e-17
2.28701e-26
7.94066e-26
1.83949e-17
2.1484e-26
8.21065e-26
1.83949e-17
1.60756e-26
7.35547e-26
1.83949e-17
2.5171e-26
8.75836e-26
1.83949e-17
2.08267e-26
7.80041e-26
1.83949e-17
2.37583e-26
8.33658e-26
1.83949e-17
1.36729e-26
6.17586e-26
1.83949e-17
1.71467e-26
6.67594e-26
1.83949e-17
7.40416e-27
4.88791e-26
1.83949e-17
1.87877e-26
6.11352e-26
1.83949e-17
1.05673e-26
3.9922e-26
1.83949e-17
1.82237e-26
4.43111e-26
1.83949e-17
7.06684e-27
1.60848e-26
1.83949e-17
1.50178e-26
2.81656e-26
1.83949e-17
4.15677e-27
8.06566e-27
1.83949e-17
7.18313e-27
2.08263e-26
1.83949e-17
-6.42905e-27
4.90368e-27
1.83949e-17
1.19607e-26
3.63871e-26
1.83949e-17
2.21669e-27
1.81769e-26
1.83949e-17
1.51824e-26
3.93269e-26
1.83949e-17
-1.75173e-27
6.33879e-27
1.83949e-17
7.45166e-27
2.51263e-26
1.83949e-17
-1.26383e-26
-1.64409e-27
1.83949e-17
1.35237e-26
3.73482e-26
1.83949e-17
-9.22886e-28
1.02908e-26
1.83949e-17
1.68374e-26
3.51746e-26
1.83949e-17
-3.35298e-27
-4.41717e-27
1.83949e-17
1.13628e-26
1.76512e-26
1.83949e-17
-9.3579e-27
-1.5136e-26
1.83949e-17
7.96555e-27
1.49606e-26
1.83949e-17
-8.58489e-27
-1.00448e-26
1.83949e-17
8.09328e-27
1.94968e-26
1.83949e-17
-7.09628e-27
-4.71813e-27
1.83949e-17
8.89447e-27
2.46077e-26
1.83949e-17
-5.85911e-27
2.21618e-28
1.83949e-17
9.04284e-27
2.86018e-26
1.83949e-17
-4.21223e-27
5.54575e-27
1.83949e-17
9.14616e-27
3.25178e-26
1.83949e-17
-3.65839e-27
1.08093e-26
1.83949e-17
8.62573e-27
3.79992e-26
1.83949e-17
-4.11025e-27
2.06997e-26
1.83949e-17
1.66629e-26
5.47366e-26
1.83949e-17
8.53598e-27
3.42003e-26
1.83949e-17
1.87068e-26
4.88424e-26
1.83949e-17
3.2722e-27
1.77327e-26
1.83949e-17
9.10833e-27
2.86731e-26
1.83949e-17
-4.37977e-27
9.80762e-27
1.83949e-17
1.22774e-26
3.39608e-26
1.83949e-17
6.40127e-27
2.03565e-26
1.83949e-17
1.23644e-26
2.66778e-26
1.83949e-17
-3.33296e-29
2.23272e-27
1.83949e-17
1.98426e-27
4.38421e-27
1.83949e-17
-1.03119e-26
-1.03959e-26
1.83949e-17
5.78097e-27
1.13801e-26
1.83949e-17
-3.23866e-28
-1.1119e-27
1.83949e-17
8.51058e-27
6.32753e-27
1.83949e-17
-3.96299e-27
-2.04085e-26
1.83949e-17
-4.27298e-28
-1.45869e-26
1.83949e-17
-1.31689e-26
-3.64818e-26
1.83949e-17
-3.57944e-27
-1.90938e-26
1.83949e-17
-1.37764e-26
-3.44506e-26
1.83949e-17
-2.88317e-27
-1.03277e-26
1.83949e-17
-1.32459e-26
-2.9635e-26
1.83949e-17
-9.88782e-27
2.37962e-27
1.83949e-17
-1.11999e-27
-7.46021e-27
1.83949e-17
1.11156e-27
-1.29818e-26
-5.3194e-27
-2.01539e-26
1.56758e-17
-3.22227e-23
2.30931e-23
1.56759e-17
2.02299e-23
-4.77544e-23
1.56759e-17
-4.97564e-24
2.37769e-23
1.56759e-17
5.23848e-24
-6.68e-24
1.56759e-17
1.13564e-24
1.49735e-24
1.56759e-17
5.01808e-25
3.40752e-24
1.56759e-17
1.24597e-24
2.83491e-27
1.56759e-17
4.41139e-25
9.0255e-25
1.56759e-17
3.85904e-25
7.91474e-25
1.56759e-17
3.80908e-25
4.30101e-25
1.56759e-17
2.86326e-25
3.96142e-25
1.56759e-17
2.41973e-25
3.71497e-25
1.56759e-17
2.27085e-25
2.95807e-25
1.56759e-17
1.99511e-25
2.70458e-25
1.56759e-17
1.74179e-25
2.30793e-25
1.56759e-17
1.57241e-25
2.11535e-25
1.56759e-17
1.34035e-25
1.78074e-25
1.56759e-17
1.24547e-25
1.62331e-25
1.56759e-17
1.02569e-25
1.35456e-25
1.56759e-17
9.82527e-26
1.18663e-25
1.56759e-17
8.00853e-26
1.04151e-25
1.56759e-17
8.06537e-26
9.24968e-26
1.56759e-17
6.79753e-26
8.52834e-26
1.56759e-17
6.97026e-26
7.77813e-26
1.56759e-17
5.99549e-26
7.43008e-26
1.56759e-17
6.16936e-26
6.85441e-26
1.56759e-17
5.53686e-26
6.99475e-26
1.56759e-17
5.89383e-26
6.16652e-26
1.56759e-17
5.3612e-26
6.28684e-26
1.56759e-17
5.28355e-26
5.70265e-26
1.56759e-17
4.45991e-26
5.58771e-26
1.56759e-17
4.53116e-26
5.00908e-26
1.56759e-17
3.92724e-26
4.83011e-26
1.56759e-17
3.88175e-26
4.36065e-26
1.56759e-17
3.30992e-26
4.38672e-26
1.56759e-17
4.01031e-26
4.38026e-26
1.56759e-17
3.70115e-26
4.37477e-26
1.56759e-17
4.04416e-26
4.46769e-26
1.56759e-17
2.98413e-26
4.23492e-26
1.56759e-17
3.1519e-26
3.64705e-26
1.56759e-17
2.18816e-26
3.76518e-26
1.56759e-17
3.01177e-26
2.82942e-26
1.56759e-17
2.00155e-26
2.9221e-26
1.56759e-17
2.34431e-26
2.17172e-26
1.56759e-17
8.97965e-27
2.09003e-26
1.56759e-17
1.50071e-26
1.81713e-26
1.56759e-17
4.29894e-27
1.33714e-26
1.56759e-17
8.02221e-27
9.86757e-27
1.56759e-17
-1.22309e-27
6.32388e-27
1.56759e-17
1.39316e-26
1.53666e-26
1.56759e-17
7.56333e-27
1.27065e-26
1.56759e-17
1.96058e-26
2.01057e-26
1.56759e-17
2.43248e-27
1.38442e-26
1.56759e-17
1.04515e-26
1.33559e-26
1.56759e-17
-6.30363e-27
7.56493e-27
1.56759e-17
1.46995e-26
1.44048e-26
1.56759e-17
2.34254e-27
8.46134e-27
1.56759e-17
1.91885e-26
1.59789e-26
1.56759e-17
-2.36756e-27
9.29458e-27
1.56759e-17
1.05037e-26
7.98859e-27
1.56759e-17
-8.8277e-27
2.01638e-27
1.56759e-17
6.50551e-27
9.55882e-28
1.56759e-17
-6.87182e-27
-2.21485e-27
1.56759e-17
8.10679e-27
2.73918e-27
1.56759e-17
-3.65372e-27
6.62186e-29
1.56759e-17
1.04308e-26
5.87801e-27
1.56759e-17
-1.15775e-27
3.66173e-27
1.56759e-17
1.20823e-26
8.31281e-27
1.56759e-17
1.4448e-27
6.80609e-27
1.56759e-17
1.36154e-26
1.03115e-26
1.56759e-17
3.31148e-27
8.21725e-27
1.56759e-17
1.51657e-26
1.26634e-26
1.56759e-17
6.00426e-27
1.38071e-26
1.56759e-17
2.5375e-26
2.12232e-26
1.56759e-17
1.62883e-26
2.24444e-26
1.56759e-17
2.81798e-26
2.37602e-26
1.56759e-17
1.0294e-26
2.11475e-26
1.56759e-17
1.66089e-26
1.54217e-26
1.56759e-17
1.91983e-27
1.41502e-26
1.56759e-17
1.68248e-26
1.15309e-26
1.56759e-17
9.51013e-27
1.27914e-26
1.56759e-17
1.76101e-26
1.20909e-26
1.56759e-17
2.91894e-27
9.47915e-27
1.56759e-17
5.35411e-27
3.92142e-27
1.56759e-17
-7.34732e-27
2.10497e-27
1.56759e-17
5.80291e-27
2.70404e-28
1.56759e-17
-1.06727e-27
2.42412e-31
1.56759e-17
7.67647e-27
1.2897e-27
1.56759e-17
-6.68433e-27
-1.6143e-27
1.56759e-17
-2.68822e-27
-6.65631e-27
1.56759e-17
-1.68162e-26
-1.12628e-26
1.56759e-17
-8.46808e-27
-1.49668e-26
1.56759e-17
-1.7953e-26
-1.6258e-26
1.56759e-17
-7.09966e-27
-1.48579e-26
1.56759e-17
-1.65883e-26
-1.13889e-26
1.56759e-17
-4.11076e-27
-1.40984e-26
1.56759e-17
-1.70427e-26
3.277e-28
1.56759e-17
-2.74799e-27
-2.50711e-26
1.56759e-17
1.50047e-27
-9.06771e-27
-9.9124e-28
-4.65011e-27
6.77808e-18
3.53683e-23
6.7781e-18
-1.82835e-23
6.77809e-18
7.39371e-24
6.7781e-18
-4.27722e-24
6.7781e-18
3.30435e-25
6.7781e-18
9.44303e-26
6.7781e-18
-7.55514e-25
6.7781e-18
-2.50228e-25
6.7781e-18
-1.81682e-25
6.7781e-18
-3.28349e-25
6.7781e-18
-1.82398e-25
6.7781e-18
-1.87958e-25
6.7781e-18
-1.35168e-25
6.7781e-18
-1.325e-25
6.7781e-18
-9.75401e-26
6.7781e-18
-9.06003e-26
6.7781e-18
-8.0018e-26
6.77811e-18
-6.71029e-26
6.77811e-18
-7.3549e-26
6.77811e-18
-5.38208e-26
6.77811e-18
-6.70403e-26
6.77811e-18
-4.51189e-26
6.77811e-18
-6.03769e-26
6.77811e-18
-3.83235e-26
6.77811e-18
-5.12591e-26
6.77811e-18
-3.03876e-26
6.77811e-18
-4.74624e-26
6.77811e-18
-2.90223e-26
6.77811e-18
-4.3726e-26
6.77811e-18
-2.24032e-26
6.77811e-18
-3.25576e-26
6.77811e-18
-1.4798e-26
6.77811e-18
-2.92573e-26
6.77811e-18
-1.09556e-26
6.77811e-18
-2.85013e-26
6.77811e-18
-1.28849e-26
6.77811e-18
-3.06831e-26
6.77811e-18
-8.34044e-27
6.77811e-18
-2.50084e-26
6.77811e-18
-8.56897e-28
6.77811e-18
-2.82334e-26
6.77811e-18
-1.83774e-27
6.77811e-18
-2.63026e-26
6.77811e-18
8.12243e-27
6.77811e-18
-1.31129e-26
6.77811e-18
1.49642e-26
6.77811e-18
-1.25208e-26
6.77811e-18
1.47855e-26
6.77811e-18
-1.47626e-26
6.77811e-18
8.32603e-27
6.77811e-18
-2.14297e-26
6.77811e-18
1.33785e-26
6.77811e-18
-1.58919e-26
6.77811e-18
2.02648e-26
6.77811e-18
-1.9928e-26
6.77811e-18
1.35701e-26
6.77811e-18
-2.67072e-26
6.77811e-18
1.88828e-26
6.77811e-18
-1.95274e-26
6.77811e-18
2.55607e-26
6.77811e-18
-1.97382e-26
6.77811e-18
2.02052e-26
6.77811e-18
-2.1685e-26
6.77811e-18
1.47206e-26
6.77811e-18
-2.26679e-26
6.77811e-18
1.20353e-26
6.77811e-18
-2.35324e-26
6.77811e-18
1.07743e-26
6.77811e-18
-2.40681e-26
6.77811e-18
9.05245e-27
6.77811e-18
-2.41226e-26
6.77811e-18
8.14652e-27
6.77811e-18
-2.78285e-26
6.77811e-18
3.93871e-27
6.77811e-18
-3.06277e-26
6.77811e-18
1.01621e-26
6.77811e-18
-2.08601e-26
6.77811e-18
1.59571e-26
6.77811e-18
-2.30866e-26
6.77811e-18
8.74286e-27
6.77811e-18
-2.45499e-26
6.77811e-18
1.2027e-26
6.77811e-18
-1.37298e-26
6.77811e-18
1.75284e-26
6.77811e-18
-1.6187e-26
6.77811e-18
1.14002e-26
6.77811e-18
-1.85283e-26
6.77811e-18
1.67648e-26
6.77811e-18
-8.88865e-27
6.77811e-18
2.30886e-26
6.77811e-18
-1.06687e-26
6.77811e-18
1.96664e-26
6.77811e-18
-1.41176e-26
6.77811e-18
1.65813e-26
6.77811e-18
-1.34976e-26
6.77811e-18
1.34772e-26
6.77811e-18
-1.00928e-26
6.77811e-18
1.47782e-26
6.77811e-18
-1.75587e-26
7.2147e-27
5.45268e-18
4.11799e-23
2.80717e-24
5.45269e-18
-2.30429e-23
-7.06474e-25
5.45268e-18
6.63556e-24
2.00895e-24
5.45269e-18
-6.52048e-24
3.96298e-25
5.45269e-18
-1.07381e-24
4.94416e-25
5.45269e-18
-3.9257e-25
4.65874e-25
5.45269e-18
-1.43687e-24
3.06364e-25
5.45269e-18
-6.06716e-25
2.42444e-25
5.45269e-18
-4.39139e-25
1.88053e-25
5.45269e-18
-5.16053e-25
1.33493e-25
5.45269e-18
-3.69759e-25
1.17789e-25
5.45269e-18
-3.32358e-25
9.28947e-26
5.45269e-18
-2.84017e-25
8.57168e-26
5.45269e-18
-2.55851e-25
6.90614e-26
5.4527e-18
-2.13451e-25
6.45595e-26
5.4527e-18
-1.9074e-25
5.20284e-26
5.4527e-18
-1.65867e-25
4.98744e-26
5.4527e-18
-1.44175e-25
3.95357e-26
5.4527e-18
-1.33833e-25
3.88137e-26
5.4527e-18
-1.13318e-25
3.04765e-26
5.4527e-18
-1.0935e-25
3.09507e-26
5.4527e-18
-9.23871e-26
2.52776e-26
5.4527e-18
-9.48077e-26
2.57927e-26
5.4527e-18
-8.05547e-26
2.1834e-26
5.4527e-18
-8.16497e-26
2.21025e-26
5.4527e-18
-6.85032e-26
1.97291e-26
5.4527e-18
-7.35485e-26
2.00501e-26
5.4527e-18
-6.59233e-26
1.91193e-26
5.4527e-18
-7.09685e-26
1.85663e-26
5.4527e-18
-5.68275e-26
1.73724e-26
5.4527e-18
-5.5722e-26
1.5429e-26
5.4527e-18
-4.4544e-26
1.47925e-26
5.4527e-18
-4.997e-26
1.31007e-26
5.4527e-18
-3.83614e-26
1.35479e-26
5.4527e-18
-4.33989e-26
1.14707e-26
5.4527e-18
-3.74317e-26
1.28471e-26
5.4527e-18
-4.88965e-26
1.19706e-26
5.4527e-18
-3.6671e-26
1.37103e-26
5.4527e-18
-3.99715e-26
1.10854e-26
5.4527e-18
-2.39851e-26
1.10237e-26
5.4527e-18
-3.41922e-26
8.75897e-27
5.4527e-18
-2.43513e-26
1.03344e-26
5.4527e-18
-3.39494e-26
8.9009e-27
5.4527e-18
-1.20543e-26
8.91093e-27
5.4527e-18
-1.61976e-26
4.96572e-27
5.4527e-18
9.18104e-28
4.96546e-27
5.4527e-18
-1.28139e-26
2.05411e-27
5.4527e-18
3.17638e-27
4.09323e-27
5.4527e-18
-8.53165e-27
1.49028e-27
5.4527e-18
-3.12544e-28
4.2683e-27
5.4527e-18
-2.1087e-26
3.91501e-27
5.4527e-18
-3.03927e-27
6.23133e-27
5.4527e-18
-1.49584e-26
3.96027e-27
5.4527e-18
6.55332e-27
3.70494e-27
5.4527e-18
-1.0494e-26
1.58804e-27
5.4527e-18
3.86706e-27
2.93651e-27
5.4527e-18
-2.2593e-26
3.90621e-27
5.4527e-18
1.79426e-27
4.74672e-27
5.4527e-18
-1.46676e-26
3.1987e-27
5.4527e-18
1.11178e-26
2.5564e-27
5.4527e-18
-8.18628e-27
3.58796e-28
5.4527e-18
1.10499e-26
1.438e-27
5.4527e-18
-1.00598e-26
-1.53425e-28
5.4527e-18
5.75224e-27
2.31539e-27
5.4527e-18
-1.28875e-26
6.75978e-28
5.4527e-18
2.51071e-27
3.13985e-27
5.4527e-18
-1.52903e-26
1.03532e-27
5.4527e-18
-3.38926e-28
3.73619e-27
5.4527e-18
-1.77569e-26
1.40031e-27
5.4527e-18
-3.59847e-27
4.34969e-27
5.4527e-18
-1.97446e-26