/*--------------------------------*- C++ -*----------------------------------*\
| =========                 |                                                 |
| \\      /  F ield         | OpenFOAM: The Open Source CFD Toolbox           |
|  \\    /   O peration     | Version:  2412                                  |
|   \\  /    A nd           | Website:  www.openfoam.com                      |
|    \\/     M anipulation  |                                                 |
\*---------------------------------------------------------------------------*/
FoamFile
{
    version     2.0;
    format      ascii;
    arch        "LSB;label=32;scalar=64";
    class       volVectorField;
    location    "200";
    object      U;
}
// * * * * * * * * * * * * * * * * * * * * * * * * * * * * * * * * * * * * * //

dimensions      [0 1 -1 0 0 0 0];

internalField   nonuniform List<vector> 
3700
(
(5.67752e-06 2.85633e-12 2.12643e-11)
(5.67751e-06 -1.31958e-12 -1.20051e-11)
(5.67752e-06 1.66502e-12 4.16297e-12)
(5.67752e-06 3.2316e-13 -2.97923e-12)
(5.67752e-06 5.15181e-13 -3.4996e-13)
(5.67752e-06 4.37323e-13 -8.96475e-14)
(5.67752e-06 2.53411e-13 -6.68378e-13)
(5.67752e-06 2.36181e-13 -2.57891e-13)
(5.67752e-06 1.62831e-13 -2.23596e-13)
(5.67752e-06 1.16973e-13 -2.4475e-13)
(5.67752e-06 1.0097e-13 -1.81381e-13)
(5.67752e-06 8.21302e-14 -1.54143e-13)
(5.67752e-06 7.03441e-14 -1.33243e-13)
(5.67752e-06 6.05445e-14 -1.15688e-13)
(5.67753e-06 5.24917e-14 -9.88281e-14)
(5.67753e-06 4.59161e-14 -8.71197e-14)
(5.67753e-06 4.05112e-14 -7.67557e-14)
(5.67753e-06 3.63284e-14 -6.84322e-14)
(5.67753e-06 3.22397e-14 -6.38289e-14)
(5.67753e-06 2.98453e-14 -5.72509e-14)
(5.67753e-06 2.73654e-14 -5.36019e-14)
(5.67753e-06 2.54291e-14 -4.78471e-14)
(5.67753e-06 2.31165e-14 -4.56201e-14)
(5.67753e-06 2.17425e-14 -4.06715e-14)
(5.67753e-06 2.00222e-14 -3.84684e-14)
(5.67753e-06 1.92204e-14 -3.43164e-14)
(5.67753e-06 1.81297e-14 -3.27925e-14)
(5.67753e-06 1.76693e-14 -3.20289e-14)
(5.67753e-06 1.69738e-14 -3.06693e-14)
(5.67753e-06 1.62853e-14 -2.70459e-14)
(5.67753e-06 1.50307e-14 -2.43689e-14)
(5.67753e-06 1.44597e-14 -2.09525e-14)
(5.67753e-06 1.32664e-14 -2.11395e-14)
(5.67753e-06 1.29758e-14 -1.78105e-14)
(5.67753e-06 1.16417e-14 -1.77748e-14)
(5.67753e-06 1.16707e-14 -1.71462e-14)
(5.67753e-06 1.14307e-14 -1.92197e-14)
(5.67753e-06 1.18569e-14 -1.59766e-14)
(5.67753e-06 1.03369e-14 -1.51483e-14)
(5.67753e-06 1.00069e-14 -1.14789e-14)
(5.67753e-06 8.76176e-15 -1.16455e-14)
(5.67753e-06 9.27717e-15 -1.19607e-14)
(5.67753e-06 8.80237e-15 -1.09109e-14)
(5.67753e-06 8.01904e-15 -6.53869e-15)
(5.67753e-06 6.14822e-15 -4.63703e-15)
(5.67753e-06 5.23263e-15 -8.0146e-16)
(5.67753e-06 4.10107e-15 -3.7071e-15)
(5.67753e-06 4.14465e-15 1.04578e-16)
(5.67753e-06 3.00084e-15 -2.3013e-15)
(5.67753e-06 3.81142e-15 -1.77105e-15)
(5.67753e-06 3.87452e-15 -6.38764e-15)
(5.67753e-06 4.84223e-15 -2.01608e-15)
(5.67753e-06 3.49503e-15 -3.74265e-15)
(5.67753e-06 3.0987e-15 1.49236e-15)
(5.67753e-06 1.85396e-15 -1.99228e-15)
(5.67753e-06 2.81209e-15 -6.78573e-16)
(5.67753e-06 2.90581e-15 -6.43979e-15)
(5.67753e-06 3.93716e-15 -8.64472e-16)
(5.67753e-06 2.70235e-15 -3.7458e-15)
(5.67753e-06 2.58061e-15 2.30653e-15)
(5.67753e-06 6.74685e-16 -1.11131e-15)
(5.67753e-06 1.06537e-15 1.59163e-15)
(5.67753e-06 5.25172e-16 -2.90466e-15)
(5.67753e-06 1.79636e-15 -5.18374e-16)
(5.67753e-06 1.48156e-15 -4.26811e-15)
(5.67753e-06 2.70136e-15 -1.64065e-15)
(5.67753e-06 2.09885e-15 -5.19092e-15)
(5.67753e-06 3.23983e-15 -2.91895e-15)
(5.67753e-06 2.52912e-15 -6.25393e-15)
(5.67753e-06 3.66585e-15 -4.17113e-15)
(5.67753e-06 2.89889e-15 -7.26396e-15)
(5.67753e-06 4.03072e-15 -5.10946e-15)
(5.67753e-06 3.77462e-15 -8.74725e-15)
(5.67753e-06 5.82561e-15 -7.85391e-15)
(5.67753e-06 5.97247e-15 -1.18024e-14)
(5.67753e-06 6.85094e-15 -6.81371e-15)
(5.67753e-06 4.72938e-15 -7.91649e-15)
(5.67753e-06 3.9523e-15 -2.95945e-15)
(5.67753e-06 2.22055e-15 -5.70748e-15)
(5.67753e-06 3.14969e-15 -4.63898e-15)
(5.67753e-06 3.41147e-15 -8.10029e-15)
(5.67753e-06 4.0441e-15 -3.27777e-15)
(5.67753e-06 2.19651e-15 -3.80336e-15)
(5.67753e-06 1.03859e-15 8.21775e-16)
(5.67753e-06 -5.95735e-16 -1.53499e-15)
(5.67753e-06 -8.66208e-17 -3.6764e-16)
(5.67753e-06 4.48015e-16 -3.65969e-15)
(5.67753e-06 9.42214e-16 1.32299e-15)
(5.67753e-06 -7.52409e-16 5.34215e-16)
(5.67753e-06 -1.42518e-15 5.03955e-15)
(5.67753e-06 -3.12628e-15 3.01366e-15)
(5.67753e-06 -3.00423e-15 4.7806e-15)
(5.67753e-06 -3.28119e-15 1.48076e-15)
(5.67753e-06 -2.09321e-15 3.59256e-15)
(5.67753e-06 -1.95251e-15 2.02361e-15)
(5.67753e-06 -1.29028e-15 2.60326e-15)
(5.67753e-06 -5.96262e-16 4.71253e-15)
(5.67753e-06 1.21624e-16 4.03588e-15)
(5.67753e-06 2.3571e-15 -5.42926e-16)
(5.67753e-06 1.64625e-15 1.29021e-15)
(8.04188e-06 4.10988e-13 3.05649e-11)
(8.04187e-06 3.43981e-13 -2.13933e-11)
(8.04188e-06 6.23232e-13 8.81526e-12)
(8.04188e-06 4.63638e-13 -3.12752e-12)
(8.04188e-06 4.39846e-13 -1.7052e-13)
(8.04189e-06 3.35391e-13 3.05099e-13)
(8.04189e-06 2.46747e-13 -7.08756e-13)
(8.04189e-06 1.69485e-13 -1.59686e-13)
(8.04189e-06 1.13585e-13 -1.53406e-13)
(8.04189e-06 7.84272e-14 -2.25926e-13)
(8.04189e-06 6.89035e-14 -1.58949e-13)
(8.04189e-06 5.90892e-14 -1.29669e-13)
(8.04189e-06 5.33707e-14 -1.14297e-13)
(8.04189e-06 4.72356e-14 -9.83814e-14)
(8.04189e-06 4.2516e-14 -8.36698e-14)
(8.04189e-06 3.74824e-14 -7.33959e-14)
(8.04189e-06 3.38295e-14 -6.43744e-14)
(8.04189e-06 3.01309e-14 -5.72878e-14)
(8.04189e-06 2.75532e-14 -5.31758e-14)
(8.04189e-06 2.49435e-14 -4.83286e-14)
(8.04189e-06 2.30265e-14 -4.46058e-14)
(8.04189e-06 2.0692e-14 -4.04089e-14)
(8.04189e-06 1.90998e-14 -3.84524e-14)
(8.04189e-06 1.77395e-14 -3.45923e-14)
(8.04189e-06 1.66056e-14 -3.2591e-14)
(8.04189e-06 1.5943e-14 -2.87247e-14)
(8.04189e-06 1.50428e-14 -2.83698e-14)
(8.04189e-06 1.51632e-14 -2.5971e-14)
(8.04189e-06 1.44577e-14 -2.61269e-14)
(8.04189e-06 1.41356e-14 -2.20914e-14)
(8.04189e-06 1.31747e-14 -1.99145e-14)
(8.04189e-06 1.28864e-14 -1.72911e-14)
(8.04189e-06 1.20975e-14 -1.69125e-14)
(8.04189e-06 1.13672e-14 -1.42649e-14)
(8.04189e-06 9.85363e-15 -1.42915e-14)
(8.04189e-06 9.58639e-15 -1.39649e-14)
(8.04189e-06 9.91368e-15 -1.58408e-14)
(8.0419e-06 1.03223e-14 -1.33041e-14)
(8.0419e-06 9.15086e-15 -1.17525e-14)
(8.0419e-06 8.35938e-15 -8.51814e-15)
(8.0419e-06 6.69013e-15 -9.79987e-15)
(8.0419e-06 7.33751e-15 -7.34284e-15)
(8.0419e-06 6.76861e-15 -8.72237e-15)
(8.0419e-06 6.50977e-15 -3.97725e-15)
(8.0419e-06 5.1387e-15 -2.53404e-15)
(8.0419e-06 4.85044e-15 1.98453e-17)
(8.0419e-06 3.98415e-15 -1.45137e-15)
(8.0419e-06 3.49739e-15 1.08169e-15)
(8.0419e-06 1.68467e-15 -4.20358e-16)
(8.0419e-06 1.63668e-15 -6.48261e-16)
(8.0419e-06 2.43831e-15 -4.17735e-15)
(8.0419e-06 3.51789e-15 -1.30425e-15)
(8.0419e-06 2.82755e-15 -1.05827e-15)
(8.0419e-06 2.26217e-15 1.65306e-15)
(8.0419e-06 5.21419e-16 -5.61652e-16)
(8.0419e-06 5.29235e-16 -2.83394e-16)
(8.0419e-06 1.53872e-15 -4.46039e-15)
(8.0419e-06 2.78176e-15 -6.61872e-16)
(8.0419e-06 2.2258e-15 -1.19606e-15)
(8.0419e-06 2.03976e-15 1.99127e-15)
(8.0419e-06 2.12309e-16 -5.7953e-16)
(8.0419e-06 -1.56015e-16 9.88324e-16)
(8.0419e-06 -8.53863e-16 -2.76321e-15)
(8.0419e-06 -1.78972e-17 -6.96998e-16)
(8.0419e-06 -1.91814e-16 -3.65495e-15)
(8.0419e-06 6.39666e-16 -1.64232e-15)
(8.0419e-06 5.23152e-16 -4.56488e-15)
(8.0419e-06 1.07055e-15 -2.79962e-15)
(8.0419e-06 9.48041e-16 -5.61816e-15)
(8.0419e-06 1.38767e-15 -4.02481e-15)
(8.0419e-06 1.1769e-15 -6.47442e-15)
(8.0419e-06 1.58822e-15 -4.97244e-15)
(8.0419e-06 1.52953e-15 -7.6768e-15)
(8.0419e-06 2.73554e-15 -7.03004e-15)
(8.0419e-06 3.95853e-15 -9.93973e-15)
(8.0419e-06 5.22451e-15 -6.25946e-15)
(8.0419e-06 4.07069e-15 -5.53622e-15)
(8.0419e-06 3.32692e-15 -2.72475e-15)
(8.0419e-06 1.17833e-15 -4.91102e-15)
(8.0419e-06 1.33193e-15 -4.48383e-15)
(8.0419e-06 2.09045e-15 -7.21376e-15)
(8.0419e-06 3.27788e-15 -3.26307e-15)
(8.0419e-06 2.15507e-15 -2.04922e-15)
(8.0419e-06 1.26003e-15 3.64745e-16)
(8.0419e-06 -9.47366e-16 -1.28895e-15)
(8.0419e-06 -1.06296e-15 -7.00641e-16)
(8.0419e-06 -4.69708e-16 -2.99754e-15)
(8.0419e-06 7.83083e-16 9.46376e-16)
(8.0419e-06 1.1986e-16 1.5814e-15)
(8.0419e-06 -5.19117e-16 3.90187e-15)
(8.0419e-06 -2.49097e-15 2.72505e-15)
(8.0419e-06 -3.03359e-15 3.75064e-15)
(8.0419e-06 -3.6687e-15 1.08463e-15)
(8.0419e-06 -2.75826e-15 2.98134e-15)
(8.0419e-06 -2.98259e-15 1.85169e-15)
(8.0419e-06 -2.61799e-15 1.84129e-15)
(8.0419e-06 -3.29846e-15 6.96924e-15)
(8.0419e-06 -2.50549e-15 1.6659e-15)
(8.0419e-06 -2.37259e-15 -1.91837e-15)
(8.0419e-06 -6.71875e-16 3.79472e-15)
(5.67752e-06 -2.3941e-12 2.07675e-11)
(5.67751e-06 1.69565e-12 -1.16075e-11)
(5.67752e-06 -1.06991e-12 4.51706e-12)
(5.67752e-06 1.61559e-13 -2.65999e-12)
(5.67752e-06 -5.11579e-14 -1.47531e-13)
(5.67752e-06 -6.77196e-14 1.67206e-14)
(5.67752e-06 1.11413e-15 -6.24957e-13)
(5.67752e-06 -5.08975e-14 -1.957e-13)
(5.67752e-06 -3.62584e-14 -1.96317e-13)
(5.67752e-06 -2.82295e-14 -2.27483e-13)
(5.67752e-06 -2.54193e-14 -1.67419e-13)
(5.67752e-06 -1.90947e-14 -1.35503e-13)
(5.67752e-06 -1.24222e-14 -1.17788e-13)
(5.67752e-06 -1.01663e-14 -9.98629e-14)
(5.67753e-06 -7.07532e-15 -8.43382e-14)
(5.67753e-06 -5.90666e-15 -7.43607e-14)
(5.67753e-06 -4.76509e-15 -6.39147e-14)
(5.67753e-06 -3.9436e-15 -5.85002e-14)
(5.67753e-06 -3.56647e-15 -5.13248e-14)
(5.67753e-06 -2.7876e-15 -4.86076e-14)
(5.67753e-06 -3.33254e-15 -4.29971e-14)
(5.67753e-06 -2.71328e-15 -4.15422e-14)
(5.67753e-06 -3.08537e-15 -3.74208e-14)
(5.67753e-06 -2.32036e-15 -3.57913e-14)
(5.67753e-06 -2.60863e-15 -3.22062e-14)
(5.67753e-06 -1.93624e-15 -3.07207e-14)
(5.67753e-06 -2.39241e-15 -2.86847e-14)
(5.67753e-06 -1.53951e-15 -2.84926e-14)
(5.67753e-06 -1.75976e-15 -2.65594e-14)
(5.67753e-06 -9.94361e-16 -2.39905e-14)
(5.67753e-06 -1.10209e-15 -2.04725e-14)
(5.67753e-06 -3.946e-16 -1.90299e-14)
(5.67753e-06 -6.10182e-16 -1.72808e-14)
(5.67753e-06 -4.52421e-16 -1.6015e-14)
(5.67753e-06 -1.24356e-15 -1.54314e-14)
(5.67753e-06 -1.07167e-15 -1.69572e-14)
(5.67753e-06 -1.04792e-15 -1.64536e-14)
(5.67753e-06 -4.87378e-16 -1.53817e-14)
(5.67753e-06 -9.25713e-16 -1.20569e-14)
(5.67753e-06 -5.66701e-16 -1.13505e-14)
(5.67753e-06 -1.83722e-15 -1.0187e-14)
(5.67753e-06 -1.09986e-15 -1.18169e-14)
(5.67753e-06 -1.58833e-15 -9.04767e-15)
(5.67753e-06 -3.11802e-16 -6.73859e-15)
(5.67753e-06 -3.67452e-16 -1.72376e-15)
(5.67753e-06 6.90205e-16 -1.63716e-15)
(5.67753e-06 2.77963e-16 -7.95734e-17)
(5.67753e-06 3.06893e-16 -3.13473e-16)
(5.67753e-06 -1.0103e-15 -2.55576e-16)
(5.67753e-06 -1.35538e-15 -4.2077e-15)
(5.67753e-06 -1.27706e-15 -3.27041e-15)
(5.67753e-06 -3.00523e-16 -3.81568e-15)
(5.67753e-06 -4.59046e-16 2.78686e-16)
(5.67753e-06 -5.24851e-18 -8.50758e-16)
(5.67753e-06 -1.48844e-15 6.71941e-16)
(5.67753e-06 -1.53864e-15 -4.81351e-15)
(5.67753e-06 -1.51672e-15 -2.31456e-15)
(5.67753e-06 -1.63555e-16 -3.47267e-15)
(5.67753e-06 -3.82261e-16 1.67595e-15)
(5.67753e-06 4.79689e-16 -4.07068e-16)
(5.67753e-06 -5.48092e-16 2.18513e-15)
(5.67753e-06 -4.85086e-16 -1.5086e-15)
(5.67753e-06 -1.27848e-15 -1.02577e-16)
(5.67753e-06 -1.02864e-15 -3.00534e-15)
(5.67753e-06 -1.51173e-15 -1.45796e-15)
(5.67753e-06 -1.19341e-15 -4.06047e-15)
(5.67753e-06 -1.61054e-15 -2.54119e-15)
(5.67753e-06 -1.28803e-15 -5.05329e-15)
(5.67753e-06 -1.56581e-15 -3.74412e-15)
(5.67753e-06 -1.32424e-15 -6.08088e-15)
(5.67753e-06 -1.64385e-15 -4.74944e-15)
(5.67753e-06 -1.50275e-15 -7.17364e-15)
(5.67753e-06 -2.35217e-15 -6.46805e-15)
(5.67753e-06 -1.9358e-15 -1.06085e-14)
(5.67753e-06 -1.86903e-15 -8.16978e-15)
(5.67753e-06 -1.51851e-16 -8.06047e-15)
(5.67753e-06 -4.37484e-16 -3.54685e-15)
(5.67753e-06 4.27561e-16 -4.38523e-15)
(5.67753e-06 -1.25491e-15 -3.2044e-15)
(5.67753e-06 -1.09765e-15 -7.0509e-15)
(5.67753e-06 -1.27238e-15 -5.19653e-15)
(5.67753e-06 1.2483e-16 -4.16029e-15)
(5.67753e-06 1.75012e-16 -3.89332e-16)
(5.67753e-06 7.40734e-16 -4.54083e-16)
(5.67753e-06 -7.11741e-16 1.35271e-16)
(5.67753e-06 -7.85343e-16 -3.01997e-15)
(5.67753e-06 -9.85749e-16 -1.06097e-15)
(5.67753e-06 4.59706e-16 -6.53344e-17)
(5.67753e-06 8.00878e-16 3.56621e-15)
(5.67753e-06 1.47304e-15 3.30134e-15)
(5.67753e-06 2.97798e-16 4.64882e-15)
(5.67753e-06 3.90669e-16 2.61737e-15)
(5.67753e-06 -8.35644e-16 3.06412e-15)
(5.67753e-06 -3.78115e-16 1.4762e-15)
(5.67753e-06 -1.52242e-15 3.12706e-15)
(5.67753e-06 -1.42709e-15 1.9422e-16)
(5.67753e-06 -3.23253e-15 5.07468e-15)
(5.67753e-06 -2.63346e-15 1.26333e-15)
(5.67753e-06 -4.52291e-15 -1.03702e-15)
(5.67753e-06 -2.50536e-15 1.98847e-15)
(7.05758e-06 1.88276e-11 1.99007e-11)
(7.05757e-06 -1.17409e-11 -1.08964e-11)
(7.05758e-06 3.83162e-12 5.13699e-12)
(7.05757e-06 -2.39937e-12 -1.6139e-12)
(7.05758e-06 -1.63239e-13 4.42799e-13)
(7.05758e-06 1.13478e-13 5.25322e-13)
(7.05758e-06 -3.22477e-13 -6.57329e-14)
(7.05758e-06 -6.62025e-15 1.33961e-13)
(7.05758e-06 -2.94879e-14 8.84055e-14)
(7.05758e-06 -8.50312e-14 1.01744e-14)
(7.05758e-06 -5.65004e-14 3.83517e-14)
(7.05758e-06 -5.33314e-14 2.76676e-14)
(7.05758e-06 -5.06869e-14 2.71467e-14)
(7.05758e-06 -4.50656e-14 2.12232e-14)
(7.05758e-06 -3.85904e-14 2.18994e-14)
(7.05759e-06 -3.38875e-14 1.69796e-14)
(7.05759e-06 -2.9209e-14 1.4255e-14)
(7.05759e-06 -2.45416e-14 1.05621e-14)
(7.05759e-06 -2.20983e-14 3.92143e-15)
(7.05759e-06 -1.73521e-14 4.02886e-15)
(7.05759e-06 -1.52636e-14 -3.06813e-16)
(7.05759e-06 -1.24211e-14 2.08425e-15)
(7.05759e-06 -1.26585e-14 -1.99496e-15)
(7.05759e-06 -1.09673e-14 1.80249e-15)
(7.05759e-06 -1.07678e-14 1.9156e-16)
(7.05759e-06 -9.1909e-15 4.07008e-15)
(7.05759e-06 -8.46125e-15 1.74986e-15)
(7.05759e-06 -9.20723e-15 3.15667e-15)
(7.05759e-06 -8.49687e-15 8.38715e-16)
(7.05759e-06 -7.24572e-15 4.36333e-15)
(7.05759e-06 -6.07115e-15 3.26652e-15)
(7.05759e-06 -4.38466e-15 5.6718e-15)
(7.05759e-06 -4.87006e-15 2.28802e-15)
(7.05759e-06 -2.98784e-15 4.82666e-15)
(7.05759e-06 -3.44282e-15 2.29369e-15)
(7.05759e-06 -3.98973e-15 4.97446e-15)
(7.05759e-06 -6.18711e-15 2.69367e-15)
(7.05759e-06 -4.69755e-15 7.61274e-15)
(7.05759e-06 -4.93791e-15 5.26685e-15)
(7.05759e-06 -2.95242e-15 8.24519e-15)
(7.05759e-06 -1.82553e-15 2.49815e-15)
(7.05759e-06 -2.59317e-15 4.31363e-15)
(7.05759e-06 -6.45799e-16 8.93379e-16)
(7.05759e-06 1.03041e-16 6.69738e-15)
(7.05759e-06 7.44798e-16 3.33015e-15)
(7.05759e-06 2.32515e-15 6.14396e-15)
(7.05759e-06 9.31239e-16 -4.91678e-16)
(7.05759e-06 3.84174e-15 3.40295e-15)
(7.05759e-06 2.86347e-15 -1.06042e-15)
(7.05759e-06 2.12173e-15 2.78989e-15)
(7.05759e-06 -1.76355e-15 -1.22398e-15)
(7.05759e-06 -2.87718e-17 6.00275e-15)
(7.05759e-06 -9.74601e-16 1.60834e-15)
(7.05759e-06 2.44068e-15 6.00916e-15)
(7.05759e-06 1.49319e-15 -1.0101e-15)
(7.05759e-06 1.99583e-15 3.61279e-15)
(7.05759e-06 -2.15993e-15 -2.9411e-15)
(7.05759e-06 7.77985e-16 5.63143e-15)
(7.05759e-06 -4.81946e-16 -5.11023e-16)
(7.05759e-06 3.76513e-15 5.20077e-15)
(7.05759e-06 2.33712e-15 -3.3411e-15)
(7.05759e-06 4.63475e-15 1.72416e-15)
(7.05759e-06 1.93929e-15 -5.38311e-15)
(7.05759e-06 3.63523e-15 7.63483e-16)
(7.05759e-06 1.64857e-15 -4.75977e-15)
(7.05759e-06 3.03088e-15 1.2463e-15)
(7.05759e-06 1.26972e-15 -4.2191e-15)
(7.05759e-06 2.06537e-15 1.49579e-15)
(7.05759e-06 5.58886e-16 -3.98874e-15)
(7.05759e-06 1.10608e-15 1.535e-15)
(7.05759e-06 -4.22359e-16 -3.33032e-15)
(7.05759e-06 3.02374e-16 2.1591e-15)
(7.05759e-06 -1.35842e-15 -2.31335e-15)
(7.05759e-06 -2.12897e-15 3.71242e-15)
(7.05759e-06 -4.71591e-15 -8.19703e-16)
(7.05759e-06 -2.34602e-15 7.09196e-15)
(7.05759e-06 -3.01368e-15 1.61005e-15)
(7.05759e-06 -2.75565e-16 5.43276e-15)
(7.05759e-06 -6.34659e-16 -2.04853e-15)
(7.05759e-06 -5.87649e-16 2.55892e-15)
(7.05759e-06 -2.90403e-15 -2.21413e-15)
(7.05759e-06 -9.60873e-16 4.94187e-15)
(7.05759e-06 -1.46573e-15 4.30918e-16)
(7.05759e-06 1.33319e-15 3.09395e-15)
(7.05759e-06 5.92182e-16 -3.46552e-15)
(7.05759e-06 1.23782e-15 3.1832e-16)
(7.05759e-06 -1.10836e-15 -3.79982e-15)
(7.05759e-06 1.47761e-15 3.04193e-15)
(7.05759e-06 1.84291e-16 -1.70902e-15)
(7.05759e-06 3.67456e-15 1.07653e-15)
(7.05759e-06 3.82849e-15 -5.95616e-15)
(7.05759e-06 5.1366e-15 -3.00469e-15)
(7.05759e-06 3.58072e-15 -8.19998e-15)
(7.05759e-06 4.85736e-15 -2.73165e-15)
(7.05759e-06 4.27934e-15 -5.62095e-15)
(7.05759e-06 3.37524e-15 -1.05748e-15)
(7.05759e-06 5.54802e-15 -5.72317e-16)
(7.05759e-06 3.07186e-15 3.49793e-15)
(7.05759e-06 7.49469e-16 -1.62458e-15)
(7.05759e-06 2.0068e-15 3.86438e-15)
(1.63222e-05 2.7204e-11 3.55844e-11)
(1.63222e-05 -2.17503e-11 -3.94261e-11)
(1.63222e-05 9.38511e-12 1.72741e-11)
(1.63222e-05 -1.87172e-12 -6.30947e-12)
(1.63222e-05 3.49346e-13 2.72536e-13)
(1.63222e-05 1.06865e-12 1.91698e-12)
(1.63222e-05 -2.38111e-14 -4.8935e-13)
(1.63222e-05 3.5435e-13 3.27189e-13)
(1.63222e-05 2.4053e-13 3.28085e-13)
(1.63222e-05 6.50917e-14 5.81406e-14)
(1.63222e-05 6.61702e-14 9.92149e-14)
(1.63222e-05 4.84982e-14 9.47642e-14)
(1.63222e-05 3.36307e-14 7.55391e-14)
(1.63222e-05 2.84464e-14 6.29745e-14)
(1.63223e-05 2.4789e-14 5.88107e-14)
(1.63223e-05 2.37916e-14 4.87781e-14)
(1.63223e-05 2.18014e-14 4.15158e-14)
(1.63223e-05 2.4645e-14 3.48487e-14)
(1.63223e-05 2.21555e-14 2.48875e-14)
(1.63223e-05 2.56899e-14 2.11363e-14)
(1.63223e-05 2.4086e-14 1.27412e-14)
(1.63223e-05 2.4104e-14 1.30759e-14)
(1.63223e-05 1.94825e-14 7.55287e-15)
(1.63223e-05 1.85426e-14 9.83066e-15)
(1.63223e-05 1.49096e-14 6.24539e-15)
(1.63223e-05 1.5371e-14 8.62696e-15)
(1.63223e-05 1.2652e-14 5.45364e-15)
(1.63223e-05 1.2515e-14 6.19707e-15)
(1.63223e-05 1.10428e-14 5.52776e-15)
(1.63223e-05 1.28401e-14 9.37161e-15)
(1.63223e-05 1.25239e-14 7.87438e-15)
(1.63223e-05 1.34813e-14 8.27943e-15)
(1.63223e-05 1.15166e-14 4.99313e-15)
(1.63223e-05 1.34366e-14 8.40791e-15)
(1.63223e-05 1.05953e-14 6.43767e-15)
(1.63223e-05 9.32305e-15 7.60041e-15)
(1.63223e-05 5.24663e-15 5.85346e-15)
(1.63223e-05 7.29881e-15 1.15245e-14)
(1.63223e-05 5.6477e-15 1.06212e-14)
(1.63223e-05 9.04946e-15 1.3084e-14)
(1.63223e-05 6.46692e-15 6.39901e-15)
(1.63223e-05 9.60413e-15 6.97367e-15)
(1.63223e-05 7.01985e-15 3.91701e-15)
(1.63223e-05 1.01435e-14 9.45726e-15)
(1.63223e-05 9.14727e-15 6.38907e-15)
(1.63223e-05 9.61966e-15 8.54344e-15)
(1.63223e-05 8.55815e-15 1.57147e-15)
(1.63223e-05 1.04788e-14 5.92517e-15)
(1.63223e-05 8.34153e-15 6.04295e-17)
(1.63223e-05 6.56489e-15 3.10165e-15)
(1.63223e-05 1.43635e-15 -2.08933e-16)
(1.63223e-05 3.68129e-15 8.90152e-15)
(1.63223e-05 3.71643e-15 5.20213e-15)
(1.63223e-05 5.88706e-15 9.78532e-15)
(1.63223e-05 5.21438e-15 6.13909e-16)
(1.63223e-05 4.88572e-15 4.39753e-15)
(1.63223e-05 7.44967e-16 -1.12336e-15)
(1.63223e-05 3.59135e-15 8.73965e-15)
(1.63223e-05 4.79971e-15 1.6095e-15)
(1.63223e-05 6.72694e-15 7.12093e-15)
(1.63223e-05 4.96849e-15 -4.16918e-15)
(1.63223e-05 5.88913e-15 4.0547e-16)
(1.63223e-05 3.50081e-15 -7.85319e-15)
(1.63223e-05 5.61086e-15 -4.88165e-16)
(1.63223e-05 3.75319e-15 -6.81597e-15)
(1.63223e-05 6.0278e-15 4.76277e-16)
(1.63223e-05 3.51331e-15 -6.01363e-15)
(1.63223e-05 5.89893e-15 9.27913e-16)
(1.63223e-05 2.87143e-15 -5.32983e-15)
(1.63223e-05 5.3463e-15 1.45546e-15)
(1.63223e-05 2.21012e-15 -4.09387e-15)
(1.63223e-05 4.60011e-15 1.96133e-15)
(1.63223e-05 1.32304e-15 -3.49838e-15)
(1.63223e-05 3.00593e-15 2.99279e-15)
(1.63223e-05 -9.85861e-16 6.71139e-17)
(1.63223e-05 2.88575e-15 1.01812e-14)
(1.63223e-05 2.66491e-15 5.32368e-15)
(1.63223e-05 5.17518e-15 9.13635e-15)
(1.63223e-05 2.99759e-15 -1.17476e-15)
(1.63223e-05 2.75756e-15 1.69451e-15)
(1.63223e-05 -8.81555e-16 -2.48253e-15)
(1.63223e-05 1.58973e-15 6.7841e-15)
(1.63223e-05 2.41716e-15 3.01508e-15)
(1.63223e-05 3.65395e-15 5.69014e-15)
(1.63223e-05 2.65988e-15 -3.45553e-15)
(1.63223e-05 1.44392e-15 -1.46567e-15)
(1.63223e-05 -6.4965e-16 -5.01642e-15)
(1.63223e-05 7.20758e-16 3.08041e-15)
(1.63223e-05 1.116e-15 -1.13237e-15)
(1.63223e-05 3.42121e-15 1.40692e-15)
(1.63223e-05 3.20414e-15 -7.37201e-15)
(1.63223e-05 3.87138e-15 -5.55075e-15)
(1.63223e-05 1.85875e-15 -1.23313e-14)
(1.63223e-05 3.09155e-15 -6.50083e-15)
(1.63223e-05 1.63391e-15 -9.31059e-15)
(1.63223e-05 3.08249e-16 -7.28878e-15)
(1.63223e-05 2.58561e-15 1.14857e-16)
(1.63223e-05 -8.95265e-15 -8.99264e-15)
(1.63223e-05 -1.06894e-14 -1.99832e-14)
(1.63223e-05 -1.83388e-15 -8.11483e-15)
(1.91534e-05 3.57083e-13 3.12284e-11)
(1.91533e-05 1.64847e-12 -3.31291e-11)
(1.91534e-05 1.91666e-12 2.42619e-11)
(1.91534e-05 1.64989e-12 -9.48501e-12)
(1.91534e-05 1.41009e-12 1.53359e-12)
(1.91534e-05 9.93428e-13 2.92515e-12)
(1.91534e-05 7.03507e-13 -6.17774e-13)
(1.91534e-05 5.52714e-13 5.53803e-13)
(1.91534e-05 3.55522e-13 5.13728e-13)
(1.91534e-05 2.64011e-13 1.68422e-13)
(1.91534e-05 2.14926e-13 1.88595e-13)
(1.91534e-05 1.87819e-13 1.88975e-13)
(1.91534e-05 1.68878e-13 1.53123e-13)
(1.91534e-05 1.50406e-13 1.28658e-13)
(1.91534e-05 1.35012e-13 1.16899e-13)
(1.91534e-05 1.19096e-13 9.72093e-14)
(1.91534e-05 1.08704e-13 8.80075e-14)
(1.91534e-05 9.60279e-14 7.1491e-14)
(1.91534e-05 9.15551e-14 6.61609e-14)
(1.91534e-05 8.15902e-14 5.11049e-14)
(1.91534e-05 7.73293e-14 4.76241e-14)
(1.91534e-05 6.7646e-14 3.80884e-14)
(1.91534e-05 6.38422e-14 3.72391e-14)
(1.91534e-05 5.73802e-14 3.15241e-14)
(1.91534e-05 5.40114e-14 3.07118e-14)
(1.91534e-05 4.99295e-14 2.6774e-14)
(1.91534e-05 4.72069e-14 2.70601e-14)
(1.91534e-05 4.71083e-14 2.46303e-14)
(1.91534e-05 4.54465e-14 2.46827e-14)
(1.91534e-05 4.31952e-14 2.35433e-14)
(1.91534e-05 4.06014e-14 2.36124e-14)
(1.91534e-05 3.79284e-14 2.02262e-14)
(1.91534e-05 3.70723e-14 2.00832e-14)
(1.91534e-05 3.34035e-14 1.83016e-14)
(1.91534e-05 2.99172e-14 1.85894e-14)
(1.91534e-05 2.75508e-14 1.54921e-14)
(1.91534e-05 3.12148e-14 1.84427e-14)
(1.91534e-05 2.90723e-14 1.87097e-14)
(1.91534e-05 2.79328e-14 2.1907e-14)
(1.91534e-05 2.26684e-14 1.76654e-14)
(1.91534e-05 2.00924e-14 1.66215e-14)
(1.91534e-05 2.0753e-14 1.15806e-14)
(1.91534e-05 2.0709e-14 1.41403e-14)
(1.91534e-05 1.7753e-14 1.23889e-14)
(1.91534e-05 1.77353e-14 1.55332e-14)
(1.91534e-05 1.16552e-14 8.21719e-15)
(1.91534e-05 1.52115e-14 9.79146e-15)
(1.91534e-05 8.64372e-15 5.64202e-15)
(1.91534e-05 7.83573e-15 6.75887e-15)
(1.91534e-05 2.37745e-15 1.3756e-15)
(1.91534e-05 1.05123e-14 7.86581e-15)
(1.91534e-05 6.83183e-15 6.18916e-15)
(1.91534e-05 1.2664e-14 1.39763e-14)
(1.91534e-05 2.54153e-15 6.2395e-15)
(1.91534e-05 5.1562e-15 8.87786e-15)
(1.91534e-05 -2.11891e-15 -1.86551e-17)
(1.91534e-05 9.79709e-15 8.06753e-15)
(1.91534e-05 4.67722e-15 4.33917e-15)
(1.91534e-05 1.2773e-14 1.2091e-14)
(1.91534e-05 2.19462e-15 2.5188e-15)
(1.91534e-05 5.64678e-15 5.14002e-15)
(1.91534e-05 -2.99901e-15 -4.49012e-15)
(1.91534e-05 2.93354e-15 6.0207e-16)
(1.91534e-05 -1.8115e-15 -4.75135e-15)
(1.91534e-05 4.29388e-15 1.37762e-15)
(1.91534e-05 2.66069e-16 -3.5988e-15)
(1.91534e-05 5.43135e-15 2.88012e-15)
(1.91534e-05 1.77633e-15 -2.63051e-15)
(1.91534e-05 6.07029e-15 3.7909e-15)
(1.91534e-05 2.96867e-15 -1.62403e-15)
(1.91534e-05 6.67113e-15 4.71879e-15)
(1.91534e-05 3.09887e-15 -6.08028e-16)
(1.91534e-05 7.21347e-15 5.26015e-15)
(1.91534e-05 5.63193e-15 3.67384e-16)
(1.91534e-05 1.52017e-14 9.29819e-15)
(1.91534e-05 1.28272e-14 7.40998e-15)
(1.91534e-05 1.6622e-14 1.3815e-14)
(1.91534e-05 7.57898e-15 6.62426e-15)
(1.91534e-05 7.20872e-15 6.55462e-15)
(1.91534e-05 2.82998e-15 -3.00732e-16)
(1.91534e-05 9.81366e-15 4.46348e-15)
(1.91534e-05 8.04359e-15 4.91524e-15)
(1.91534e-05 1.03218e-14 8.58991e-15)
(1.91534e-05 1.75212e-15 3.5742e-15)
(1.91534e-05 6.29244e-16 7.09587e-16)
(1.91534e-05 -4.77497e-15 -4.73573e-15)
(1.91534e-05 2.76284e-15 -5.08653e-16)
(1.91534e-05 5.88101e-16 5.69447e-16)
(1.91534e-05 4.32578e-15 3.72311e-15)
(1.91534e-05 -3.12191e-15 -2.45427e-15)
(1.91534e-05 -3.90285e-15 -3.5111e-15)
(1.91534e-05 -9.97036e-15 -1.06443e-14)
(1.91534e-05 -6.26055e-15 -8.75101e-15)
(1.91534e-05 -9.73693e-15 -1.18951e-14)
(1.91534e-05 -5.95085e-15 -4.70373e-15)
(1.91534e-05 -9.71688e-15 -1.18602e-14)
(1.91534e-05 -7.9726e-15 5.24862e-15)
(1.91534e-05 -1.05489e-14 -7.96881e-15)
(1.91534e-05 -6.03882e-15 -1.87381e-14)
(1.91534e-05 -1.46813e-15 -1.3982e-14)
(1.63222e-05 -2.61234e-11 3.56068e-11)
(1.63222e-05 2.40924e-11 -3.72768e-11)
(1.63222e-05 -7.04574e-12 1.63766e-11)
(1.63222e-05 3.91126e-12 -7.13388e-12)
(1.63222e-05 1.46493e-12 2.92066e-13)
(1.63222e-05 2.63058e-13 1.66231e-12)
(1.63222e-05 9.90678e-13 -8.21284e-13)
(1.63222e-05 3.74334e-13 1.18581e-13)
(1.63222e-05 2.52843e-13 1.33661e-13)
(1.63222e-05 2.74475e-13 -1.06181e-13)
(1.63222e-05 2.08726e-13 -3.01456e-14)
(1.63222e-05 1.82028e-13 -4.27932e-15)
(1.63222e-05 1.79201e-13 -9.6007e-15)
(1.63222e-05 1.59886e-13 -3.38938e-15)
(1.63223e-05 1.44261e-13 2.33352e-15)
(1.63223e-05 1.27854e-13 3.5889e-15)
(1.63223e-05 1.13649e-13 2.7715e-15)
(1.63223e-05 9.97012e-14 2.26513e-15)
(1.63223e-05 8.88204e-14 -1.45608e-15)
(1.63223e-05 7.94061e-14 -4.42017e-15)
(1.63223e-05 6.94848e-14 -7.10674e-15)
(1.63223e-05 6.3773e-14 -8.40067e-15)
(1.63223e-05 5.83517e-14 -9.41682e-15)
(1.63223e-05 5.58903e-14 -8.5123e-15)
(1.63223e-05 5.17473e-14 -8.40802e-15)
(1.63223e-05 4.97703e-14 -6.99636e-15)
(1.63223e-05 4.74158e-14 -6.77182e-15)
(1.63223e-05 4.78368e-14 -7.68968e-15)
(1.63223e-05 4.65754e-14 -6.94732e-15)
(1.63223e-05 4.42921e-14 -3.94744e-15)
(1.63223e-05 4.01794e-14 -2.11169e-15)
(1.63223e-05 3.90952e-14 -7.21488e-16)
(1.63223e-05 3.6503e-14 -1.61453e-15)
(1.63223e-05 3.3087e-14 -1.06513e-16)
(1.63223e-05 2.89876e-14 -1.86136e-15)
(1.63223e-05 3.06661e-14 -1.81477e-15)
(1.63223e-05 3.36292e-14 -3.49702e-15)
(1.63223e-05 3.36166e-14 1.2207e-15)
(1.63223e-05 2.87857e-14 1.63665e-15)
(1.63223e-05 2.4708e-14 3.42887e-15)
(1.63223e-05 2.02276e-14 2.55403e-16)
(1.63223e-05 2.12222e-14 -1.43962e-15)
(1.63223e-05 2.03432e-14 -2.54844e-15)
(1.63223e-05 1.90851e-14 2.83988e-15)
(1.63223e-05 1.42898e-14 4.1524e-15)
(1.63223e-05 1.28358e-14 8.9399e-15)
(1.63223e-05 1.00041e-14 2.9863e-15)
(1.63223e-05 6.88054e-15 6.50832e-15)
(1.63223e-05 2.17067e-15 -8.54602e-16)
(1.63223e-05 4.82872e-15 2.78291e-15)
(1.63223e-05 1.04124e-14 -2.89664e-15)
(1.63223e-05 1.34026e-14 6.09169e-15)
(1.63223e-05 9.21294e-15 2.28672e-15)
(1.63223e-05 5.54878e-15 8.65128e-15)
(1.63223e-05 -8.54734e-16 -2.20299e-16)
(1.63223e-05 2.10356e-15 3.35365e-15)
(1.63223e-05 7.838e-15 -5.03742e-15)
(1.63223e-05 1.15098e-14 6.23646e-15)
(1.63223e-05 7.01404e-15 6.7763e-16)
(1.63223e-05 4.87534e-15 7.9837e-15)
(1.63223e-05 -1.34914e-16 -1.53129e-15)
(1.63223e-05 -9.97925e-16 2.41931e-15)
(1.63223e-05 -1.06194e-15 -6.24512e-15)
(1.63223e-05 1.73077e-16 -1.28842e-16)
(1.63223e-05 8.17428e-16 -7.12735e-15)
(1.63223e-05 2.29424e-15 -6.12069e-16)
(1.63223e-05 2.69971e-15 -6.78414e-15)
(1.63223e-05 3.82622e-15 -8.0192e-16)
(1.63223e-05 4.34356e-15 -6.64372e-15)
(1.63223e-05 5.61506e-15 -1.37701e-15)
(1.63223e-05 5.57811e-15 -6.77294e-15)
(1.63223e-05 6.82259e-15 -1.6514e-15)
(1.63223e-05 6.91733e-15 -6.96654e-15)
(1.63223e-05 1.30804e-14 -2.72531e-15)
(1.63223e-05 1.78683e-14 -5.76689e-15)
(1.63223e-05 2.19832e-14 2.65923e-15)
(1.63223e-05 1.57317e-14 9.65154e-16)
(1.63223e-05 1.19677e-14 5.58113e-15)
(1.63223e-05 5.09239e-15 -2.01575e-15)
(1.63223e-05 7.81996e-15 -1.12096e-15)
(1.63223e-05 1.17955e-14 -5.6032e-15)
(1.63223e-05 1.43869e-14 2.2986e-15)
(1.63223e-05 8.18578e-15 4.07333e-16)
(1.63223e-05 3.35588e-15 5.26746e-15)
(1.63223e-05 -4.04616e-15 -1.77886e-15)
(1.63223e-05 -1.95539e-15 -6.97285e-16)
(1.63223e-05 2.06055e-15 -5.86469e-15)
(1.63223e-05 4.96585e-15 3.13165e-15)
(1.63223e-05 4.76279e-16 8.35888e-16)
(1.63223e-05 -3.2844e-15 5.68497e-15)
(1.63223e-05 -1.09682e-14 -1.43616e-15)
(1.63223e-05 -1.21273e-14 1.29676e-16)
(1.63223e-05 -1.37637e-14 -6.83239e-15)
(1.63223e-05 -1.17863e-14 -2.33773e-15)
(1.63223e-05 -1.27009e-14 -5.20358e-15)
(1.63223e-05 -9.91592e-15 -4.74103e-15)
(1.63223e-05 -1.58739e-14 1.3069e-15)
(1.63223e-05 -1.70846e-15 -1.12101e-14)
(1.63223e-05 2.17072e-15 -1.73327e-14)
(1.63223e-05 -1.49706e-15 -5.38403e-15)
(7.05758e-06 -1.81078e-11 1.94715e-11)
(7.05757e-06 1.25712e-11 -1.12885e-11)
(7.05758e-06 -3.2e-12 4.41936e-12)
(7.05757e-06 2.89887e-12 -2.22845e-12)
(7.05758e-06 5.88129e-13 1.81224e-13)
(7.05758e-06 2.47892e-13 1.35824e-13)
(7.05758e-06 6.27791e-13 -3.69626e-13)
(7.05758e-06 2.22994e-13 -8.35617e-14)
(7.05758e-06 1.97185e-13 -8.4846e-14)
(7.05758e-06 1.96576e-13 -1.41567e-13)
(7.05758e-06 1.47245e-13 -8.81364e-14)
(7.05758e-06 1.27108e-13 -8.03313e-14)
(7.05758e-06 1.17101e-13 -6.20283e-14)
(7.05758e-06 1.03328e-13 -5.49052e-14)
(7.05758e-06 8.96852e-14 -4.15263e-14)
(7.05759e-06 8.04932e-14 -3.70821e-14)
(7.05759e-06 6.91536e-14 -3.19208e-14)
(7.05759e-06 6.37686e-14 -2.88478e-14)
(7.05759e-06 5.37302e-14 -2.91532e-14)
(7.05759e-06 5.03167e-14 -2.47588e-14)
(7.05759e-06 4.17089e-14 -2.60352e-14)
(7.05759e-06 4.08365e-14 -2.11659e-14)
(7.05759e-06 3.51015e-14 -2.35313e-14)
(7.05759e-06 3.49849e-14 -1.81316e-14)
(7.05759e-06 3.06472e-14 -1.94312e-14)
(7.05759e-06 3.0753e-14 -1.43182e-14)
(7.05759e-06 2.80287e-14 -1.76798e-14)
(7.05759e-06 2.90578e-14 -1.33026e-14)
(7.05759e-06 2.69531e-14 -1.60683e-14)
(7.05759e-06 2.61424e-14 -1.01441e-14)
(7.05759e-06 2.26255e-14 -1.10418e-14)
(7.05759e-06 2.25245e-14 -6.75819e-15)
(7.05759e-06 1.97633e-14 -9.49227e-15)
(7.05759e-06 1.939e-14 -5.09746e-15)
(7.05759e-06 1.6716e-14 -9.26489e-15)
(7.05759e-06 1.95543e-14 -5.92341e-15)
(7.05759e-06 1.83728e-14 -1.00972e-14)
(7.05759e-06 1.97718e-14 -4.17778e-15)
(7.05759e-06 1.53514e-14 -7.14752e-15)
(7.05759e-06 1.57913e-14 -1.79508e-15)
(7.05759e-06 1.11498e-14 -8.88533e-15)
(7.05759e-06 1.37439e-14 -2.0879e-15)
(7.05759e-06 9.73007e-15 -7.97261e-15)
(7.05759e-06 1.08024e-14 2.37123e-15)
(7.05759e-06 4.81792e-15 -2.01421e-15)
(7.05759e-06 6.82583e-15 5.80122e-15)
(7.05759e-06 2.18711e-15 -2.13529e-15)
(7.05759e-06 3.14974e-15 5.30689e-15)
(7.05759e-06 -4.2403e-16 -3.64611e-15)
(7.05759e-06 5.31448e-15 2.18307e-15)
(7.05759e-06 3.81853e-15 -5.48711e-15)
(7.05759e-06 8.44596e-15 4.52022e-15)
(7.05759e-06 1.72696e-15 -2.88507e-15)
(7.05759e-06 4.44185e-15 6.55403e-15)