/*--------------------------------*- C++ -*----------------------------------*\
| =========                 |                                                 |
| \\      /  F ield         | OpenFOAM: The Open Source CFD Toolbox           |
|  \\    /   O peration     | Version:  2412                                  |
|   \\  /    A nd           | Website:  www.openfoam.com                      |
|    \\/     M anipulation  |                                                 |
\*---------------------------------------------------------------------------*/
FoamFile
{
    version     2.0;
    format      ascii;
    arch        "LSB;label=32;scalar=64";
    class       volVectorField;
    location    "200";
    object      U;
}
// * * * * * * * * * * * * * * * * * * * * * * * * * * * * * * * * * * * * * //

dimensions      [0 1 -1 0 0 0 0];

internalField   nonuniform List<vector> 
40500
(
(1.4556e-05 8.40638e-14 3.32866e-13)
(1.4556e-05 -2.46984e-13 -1.37008e-12)
(1.4556e-05 -1.76705e-13 7.16001e-13)
(1.4556e-05 -3.64984e-13 -6.306e-13)
(1.4556e-05 -4.21156e-13 -2.27269e-13)
(1.4556e-05 -5.20982e-13 -2.81835e-13)
(1.4556e-05 -5.74338e-13 -2.92153e-13)
(1.4556e-05 -6.04122e-13 -2.6011e-13)
(1.4556e-05 -5.98291e-13 -2.57246e-13)
(1.4556e-05 -5.59496e-13 -2.07467e-13)
(1.4556e-05 -4.90439e-13 -1.39208e-13)
(1.4556e-05 -3.98374e-13 -7.63606e-14)
(1.4556e-05 -2.90705e-13 -1.57518e-14)
(1.4556e-05 -1.80722e-13 3.01884e-14)
(1.4556e-05 -7.25404e-14 6.49555e-14)
(1.4556e-05 2.06079e-14 8.37144e-14)
(1.4556e-05 9.78931e-14 9.96249e-14)
(1.4556e-05 1.52648e-13 1.16801e-13)
(1.4556e-05 1.88139e-13 1.29574e-13)
(1.4556e-05 1.98582e-13 1.2404e-13)
(1.4556e-05 1.9233e-13 1.03807e-13)
(1.4556e-05 1.73282e-13 7.3043e-14)
(1.4556e-05 1.49041e-13 4.05354e-14)
(1.4556e-05 1.20968e-13 9.852e-15)
(1.4556e-05 9.04491e-14 -1.6002e-14)
(1.4556e-05 6.31882e-14 -3.55757e-14)
(1.4556e-05 4.03453e-14 -4.8614e-14)
(1.4556e-05 2.2958e-14 -5.40428e-14)
(1.4556e-05 9.30778e-15 -5.41179e-14)
(1.4556e-05 -3.80521e-16 -4.84157e-14)
(1.4556e-05 -5.09898e-15 -3.97886e-14)
(1.4556e-05 -4.97149e-15 -2.85797e-14)
(1.4556e-05 -3.70492e-15 -1.8472e-14)
(1.4556e-05 4.1435e-16 -8.60423e-15)
(1.4556e-05 5.06606e-15 -5.27591e-16)
(1.4556e-05 9.80126e-15 5.19151e-15)
(1.4556e-05 1.29965e-14 7.0807e-15)
(1.4556e-05 1.46501e-14 7.89338e-15)
(1.4556e-05 1.52493e-14 7.06097e-15)
(1.4556e-05 1.48706e-14 5.80051e-15)
(1.4556e-05 1.46446e-14 3.23477e-15)
(1.4556e-05 1.38545e-14 -9.93615e-16)
(1.4556e-05 1.274e-14 -7.58201e-15)
(1.4556e-05 1.14705e-14 -1.56156e-14)
(1.4556e-05 1.22332e-14 -2.14269e-14)
(1.4556e-05 1.50453e-14 -2.18407e-14)
(1.4556e-05 2.16326e-14 -1.69871e-14)
(1.4556e-05 3.15303e-14 -7.18264e-15)
(1.4556e-05 4.40394e-14 9.03742e-15)
(1.4556e-05 5.58898e-14 2.86893e-14)
(1.4556e-05 6.69899e-14 4.92546e-14)
(1.4556e-05 7.43084e-14 6.96428e-14)
(1.4556e-05 7.50535e-14 8.78906e-14)
(1.4556e-05 6.59784e-14 1.08538e-13)
(1.4556e-05 4.53272e-14 1.24371e-13)
(1.4556e-05 1.32633e-14 1.3049e-13)
(1.4556e-05 -2.96438e-14 1.19553e-13)
(1.4556e-05 -8.0044e-14 9.80608e-14)
(1.4556e-05 -1.47777e-13 5.85508e-14)
(1.4556e-05 -2.36783e-13 2.09759e-15)
(1.4556e-05 -3.35717e-13 -8.62221e-14)
(1.4556e-05 -4.25783e-13 -1.86568e-13)
(1.4556e-05 -4.94787e-13 -2.81366e-13)
(1.4556e-05 -5.23922e-13 -3.46892e-13)
(1.4556e-05 -5.03758e-13 -3.73516e-13)
(1.4556e-05 -4.28648e-13 -3.63326e-13)
(1.4556e-05 -2.94592e-13 -3.26094e-13)
(1.4556e-05 -1.19295e-13 -2.70809e-13)
(1.4556e-05 1.07041e-13 -1.67449e-13)
(1.4556e-05 3.41862e-13 -3.45715e-14)
(1.4556e-05 5.75509e-13 1.2129e-13)
(1.4556e-05 7.6451e-13 2.94624e-13)
(1.4556e-05 9.15692e-13 4.56489e-13)
(1.4556e-05 9.91602e-13 5.44559e-13)
(1.4556e-05 9.95865e-13 5.59258e-13)
(1.4556e-05 9.12477e-13 5.16216e-13)
(1.4556e-05 7.5947e-13 4.36614e-13)
(1.4556e-05 5.5701e-13 3.30891e-13)
(1.4556e-05 3.23191e-13 1.92035e-13)
(1.4556e-05 8.714e-14 2.99791e-14)
(1.4556e-05 -1.26449e-13 -1.92003e-13)
(1.4556e-05 -3.12897e-13 -4.42419e-13)
(1.4556e-05 -4.54247e-13 -7.02527e-13)
(1.4556e-05 -5.26521e-13 -9.37283e-13)
(1.4556e-05 -5.02427e-13 -1.12948e-12)
(1.4556e-05 -3.68323e-13 -1.23947e-12)
(1.4556e-05 -1.09627e-13 -1.25562e-12)
(1.4556e-05 2.68717e-13 -1.17867e-12)
(1.4556e-05 8.45435e-13 -9.39163e-13)
(1.4556e-05 1.62584e-12 -5.01695e-13)
(1.4556e-05 2.58321e-12 1.79159e-13)
(1.4556e-05 3.53681e-12 1.03792e-12)
(1.4556e-05 4.39701e-12 1.92013e-12)
(1.4556e-05 4.9396e-12 2.64998e-12)
(1.4556e-05 5.14001e-12 3.04603e-12)
(1.4556e-05 4.93279e-12 3.09326e-12)
(1.4556e-05 4.27948e-12 2.66869e-12)
(1.4556e-05 3.14963e-12 1.40359e-12)
(1.4556e-05 1.92387e-12 1.81192e-12)
(1.4556e-05 1.02131e-12 3.2777e-12)
(2.03503e-05 -7.68786e-15 8.25545e-13)
(2.03503e-05 -1.6171e-13 -2.18812e-12)
(2.03503e-05 -2.86048e-13 1.10832e-12)
(2.03503e-05 -4.27061e-13 -8.36265e-13)
(2.03503e-05 -5.48918e-13 -3.42259e-13)
(2.03503e-05 -6.61807e-13 -3.67885e-13)
(2.03503e-05 -7.50111e-13 -3.89552e-13)
(2.03503e-05 -8.00978e-13 -3.31502e-13)
(2.03503e-05 -8.03861e-13 -3.24333e-13)
(2.03503e-05 -7.58657e-13 -2.70401e-13)
(2.03503e-05 -6.67528e-13 -2.03838e-13)
(2.03503e-05 -5.42229e-13 -1.40395e-13)
(2.03503e-05 -3.97555e-13 -7.37295e-14)
(2.03503e-05 -2.49901e-13 -3.00534e-15)
(2.03503e-05 -1.04068e-13 5.43102e-14)
(2.03503e-05 2.64376e-14 8.68614e-14)
(2.03503e-05 1.34265e-13 1.08897e-13)
(2.03503e-05 2.12322e-13 1.27222e-13)
(2.03503e-05 2.59301e-13 1.35213e-13)
(2.03503e-05 2.74011e-13 1.32856e-13)
(2.03503e-05 2.65415e-13 1.18349e-13)
(2.03503e-05 2.41792e-13 9.51294e-14)
(2.03503e-05 2.09424e-13 6.58113e-14)
(2.03503e-05 1.73661e-13 3.59057e-14)
(2.03503e-05 1.38878e-13 6.256e-15)
(2.03503e-05 1.05539e-13 -2.02086e-14)
(2.03503e-05 7.58069e-14 -4.11194e-14)
(2.03503e-05 4.9828e-14 -5.41608e-14)
(2.03503e-05 2.98528e-14 -5.74705e-14)
(2.03503e-05 1.51359e-14 -5.37747e-14)
(2.03503e-05 6.34852e-15 -4.55347e-14)
(2.03503e-05 2.46792e-15 -3.51634e-14)
(2.03503e-05 2.78646e-15 -2.41189e-14)
(2.03503e-05 5.86612e-15 -1.27638e-14)
(2.03503e-05 1.08498e-14 -3.94275e-15)
(2.03503e-05 1.54798e-14 1.75696e-15)
(2.03503e-05 1.94579e-14 4.64329e-15)
(2.03503e-05 2.17556e-14 6.22238e-15)
(2.03503e-05 2.32677e-14 6.56301e-15)
(2.03503e-05 2.3493e-14 6.04219e-15)
(2.03503e-05 2.34588e-14 4.18187e-15)
(2.03503e-05 2.22883e-14 3.90812e-16)
(2.03503e-05 2.04548e-14 -6.05905e-15)
(2.03503e-05 1.83299e-14 -1.44173e-14)
(2.03503e-05 1.84326e-14 -1.89783e-14)
(2.03503e-05 2.17408e-14 -1.74701e-14)
(2.03503e-05 3.07038e-14 -1.02752e-14)
(2.03503e-05 4.27789e-14 3.03839e-15)
(2.03503e-05 5.80661e-14 2.2164e-14)
(2.03503e-05 7.28973e-14 4.32856e-14)
(2.03503e-05 8.50954e-14 6.60847e-14)
(2.03503e-05 9.0799e-14 8.84945e-14)
(2.03503e-05 8.70794e-14 1.07713e-13)
(2.03503e-05 7.10364e-14 1.2307e-13)
(2.03503e-05 4.16373e-14 1.32776e-13)
(2.03503e-05 -3.32491e-16 1.29129e-13)
(2.03503e-05 -5.34121e-14 1.08238e-13)
(2.03503e-05 -1.19709e-13 7.68307e-14)
(2.03503e-05 -2.11621e-13 2.45593e-14)
(2.03503e-05 -3.25161e-13 -5.96626e-14)
(2.03503e-05 -4.50833e-13 -1.591e-13)
(2.03503e-05 -5.72432e-13 -2.57136e-13)
(2.03503e-05 -6.64344e-13 -3.35447e-13)
(2.03503e-05 -7.03311e-13 -3.8777e-13)
(2.03503e-05 -6.72226e-13 -4.08496e-13)
(2.03503e-05 -5.56703e-13 -3.96192e-13)
(2.03503e-05 -3.6164e-13 -3.35466e-13)
(2.03503e-05 -1.04504e-13 -2.39943e-13)
(2.03503e-05 1.96164e-13 -1.09378e-13)
(2.03504e-05 5.00348e-13 7.4637e-14)
(2.03504e-05 7.91398e-13 2.43254e-13)
(2.03503e-05 1.04037e-12 4.02728e-13)
(2.03503e-05 1.22056e-12 5.25351e-13)
(2.03503e-05 1.30649e-12 5.87074e-13)
(2.03503e-05 1.2835e-12 5.90458e-13)
(2.03503e-05 1.15021e-12 5.64259e-13)
(2.03503e-05 9.28625e-13 5.02785e-13)
(2.03503e-05 6.6057e-13 3.99258e-13)
(2.03503e-05 3.75845e-13 2.53964e-13)
(2.03503e-05 1.04502e-13 3.47731e-14)
(2.03503e-05 -1.3905e-13 -2.48468e-13)
(2.03503e-05 -3.44213e-13 -5.4452e-13)
(2.03503e-05 -4.84328e-13 -8.40196e-13)
(2.03503e-05 -5.44363e-13 -1.08177e-12)
(2.03503e-05 -5.01684e-13 -1.24603e-12)
(2.03503e-05 -3.36111e-13 -1.2981e-12)
(2.03504e-05 -2.24615e-14 -1.23255e-12)
(2.03504e-05 4.57894e-13 -1.05435e-12)
(2.03504e-05 1.20404e-12 -7.34111e-13)
(2.03504e-05 2.2191e-12 -9.7459e-14)
(2.03504e-05 3.47637e-12 8.40013e-13)
(2.03504e-05 4.77486e-12 1.77024e-12)
(2.03504e-05 5.93236e-12 2.55709e-12)
(2.03504e-05 6.72154e-12 3.15317e-12)
(2.03503e-05 7.02945e-12 3.39747e-12)
(2.03503e-05 6.7375e-12 3.38752e-12)
(2.03503e-05 5.74708e-12 3.02933e-12)
(2.03503e-05 4.18718e-12 1.73625e-12)
(2.03503e-05 2.39763e-12 2.2991e-12)
(2.03503e-05 9.15696e-13 4.26816e-12)
(1.4556e-05 -8.73555e-14 2.40925e-13)
(1.4556e-05 6.14727e-14 -1.31718e-12)
(1.4556e-05 -1.4978e-13 6.63982e-13)
(1.4556e-05 -1.41338e-13 -6.59066e-13)
(1.4556e-05 -2.32273e-13 -2.38726e-13)
(1.4556e-05 -2.80071e-13 -2.70328e-13)
(1.4556e-05 -3.30321e-13 -2.61456e-13)
(1.4556e-05 -3.60113e-13 -2.10289e-13)
(1.4556e-05 -3.67594e-13 -2.07537e-13)
(1.4556e-05 -3.53642e-13 -1.82521e-13)
(1.4556e-05 -3.1598e-13 -1.55351e-13)
(1.4556e-05 -2.58689e-13 -1.23789e-13)
(1.4556e-05 -1.89256e-13 -7.39355e-14)
(1.4556e-05 -1.18886e-13 -1.00944e-14)
(1.4556e-05 -5.18132e-14 4.91215e-14)
(1.4556e-05 8.6501e-15 8.93203e-14)
(1.4556e-05 6.01856e-14 1.15979e-13)
(1.4556e-05 9.96511e-14 1.22535e-13)
(1.4556e-05 1.2268e-13 1.21549e-13)
(1.4556e-05 1.31459e-13 1.18455e-13)
(1.4556e-05 1.28947e-13 1.07579e-13)
(1.4556e-05 1.19308e-13 8.63742e-14)
(1.4556e-05 1.04957e-13 5.85567e-14)
(1.4556e-05 8.90188e-14 3.07431e-14)
(1.4556e-05 7.52362e-14 3.1273e-15)
(1.4556e-05 6.23691e-14 -2.02194e-14)
(1.4556e-05 4.96577e-14 -3.63705e-14)
(1.4556e-05 3.66282e-14 -4.548e-14)
(1.4556e-05 2.61616e-14 -4.77869e-14)
(1.4556e-05 1.83547e-14 -4.33466e-14)
(1.4556e-05 1.30455e-14 -3.56926e-14)
(1.4556e-05 9.08865e-15 -2.69886e-14)
(1.4556e-05 7.42006e-15 -1.74713e-14)
(1.4556e-05 6.98049e-15 -7.36105e-15)
(1.4556e-05 7.98862e-15 1.96908e-16)
(1.4556e-05 8.95042e-15 5.28747e-15)
(1.4556e-05 9.95685e-15 7.31048e-15)
(1.4556e-05 1.09895e-14 8.11515e-15)
(1.4556e-05 1.21263e-14 7.77016e-15)
(1.4556e-05 1.33286e-14 6.24226e-15)
(1.4556e-05 1.36105e-14 3.31823e-15)
(1.4556e-05 1.30877e-14 -1.25344e-15)
(1.4556e-05 1.1987e-14 -7.13437e-15)
(1.4556e-05 1.0781e-14 -1.36543e-14)
(1.4556e-05 1.02115e-14 -1.75414e-14)
(1.4556e-05 1.13377e-14 -1.82051e-14)
(1.4556e-05 1.51433e-14 -1.36028e-14)
(1.4556e-05 1.98634e-14 -3.8767e-15)
(1.4556e-05 2.54352e-14 1.06987e-14)
(1.4556e-05 3.12443e-14 2.75947e-14)
(1.4556e-05 3.4195e-14 4.79968e-14)
(1.4556e-05 3.34536e-14 6.99826e-14)
(1.4556e-05 2.83949e-14 8.93297e-14)
(1.4556e-05 1.86527e-14 1.05717e-13)
(1.4556e-05 4.97261e-15 1.18358e-13)
(1.4556e-05 -1.3022e-14 1.21663e-13)
(1.4556e-05 -3.49919e-14 1.09982e-13)
(1.4556e-05 -6.55732e-14 8.27601e-14)
(1.4556e-05 -1.07608e-13 3.43955e-14)
(1.4556e-05 -1.56536e-13 -4.01322e-14)
(1.4556e-05 -2.14416e-13 -1.2047e-13)
(1.4556e-05 -2.70429e-13 -2.01297e-13)
(1.4556e-05 -3.10439e-13 -2.7398e-13)
(1.4556e-05 -3.26531e-13 -3.18909e-13)
(1.4556e-05 -3.07795e-13 -3.47016e-13)
(1.4556e-05 -2.4917e-13 -3.69454e-13)
(1.4556e-05 -1.49916e-13 -3.52192e-13)
(1.4556e-05 -1.41017e-14 -2.79142e-13)
(1.4556e-05 1.18114e-13 -1.54041e-13)
(1.4556e-05 2.55657e-13 2.1657e-14)
(1.4556e-05 3.87251e-13 1.88242e-13)
(1.4556e-05 4.96726e-13 3.3936e-13)
(1.4556e-05 5.69412e-13 4.38005e-13)
(1.4556e-05 5.9609e-13 4.83431e-13)
(1.4556e-05 5.67775e-13 5.13279e-13)
(1.4556e-05 4.88612e-13 5.36492e-13)
(1.4556e-05 3.74254e-13 5.1142e-13)
(1.4556e-05 2.487e-13 4.15081e-13)
(1.4556e-05 1.37974e-13 2.65351e-13)
(1.4556e-05 4.37992e-14 3.85206e-14)
(1.4556e-05 -3.59987e-14 -2.25968e-13)
(1.4556e-05 -9.4176e-14 -4.83917e-13)
(1.4556e-05 -1.25593e-13 -7.39808e-13)
(1.4556e-05 -1.26988e-13 -9.68058e-13)
(1.4556e-05 -9.79313e-14 -1.13858e-12)
(1.4556e-05 -3.51299e-14 -1.22009e-12)
(1.4556e-05 8.42441e-14 -1.20433e-12)
(1.4556e-05 2.87902e-13 -1.07296e-12)
(1.4556e-05 6.23404e-13 -7.59534e-13)
(1.4556e-05 1.08766e-12 -1.83225e-13)
(1.4556e-05 1.63852e-12 6.34657e-13)
(1.4556e-05 2.2686e-12 1.3894e-12)
(1.4556e-05 2.79588e-12 2.08331e-12)
(1.4556e-05 3.17676e-12 2.56383e-12)
(1.4556e-05 3.31649e-12 2.76032e-12)
(1.4556e-05 3.19783e-12 2.90278e-12)
(1.4556e-05 2.68276e-12 2.92537e-12)
(1.4556e-05 1.88839e-12 1.98003e-12)
(1.4556e-05 9.39723e-13 2.30021e-12)
(1.4556e-05 9.96455e-14 3.60272e-12)
(1.53523e-05 6.37971e-14 3.94158e-13)
(1.53523e-05 -4.03439e-13 -1.29767e-12)
(1.53523e-05 -3.44096e-13 7.88664e-13)
(1.53523e-05 -6.88015e-13 -5.49656e-13)
(1.53523e-05 -7.45342e-13 -1.39738e-13)
(1.53523e-05 -8.37938e-13 -1.9542e-13)
(1.53523e-05 -8.60379e-13 -1.87747e-13)
(1.53523e-05 -8.52695e-13 -1.35811e-13)
(1.53523e-05 -8.20338e-13 -1.29765e-13)
(1.53523e-05 -7.59341e-13 -9.63774e-14)
(1.53523e-05 -6.75705e-13 -5.74298e-14)
(1.53523e-05 -5.75453e-13 -1.92044e-14)
(1.53523e-05 -4.58061e-13 2.33736e-14)
(1.53523e-05 -3.31244e-13 5.47204e-14)
(1.53523e-05 -2.03202e-13 7.35219e-14)
(1.53523e-05 -8.39123e-14 7.74456e-14)
(1.53523e-05 1.95802e-14 7.12924e-14)
(1.53523e-05 1.0355e-13 5.67953e-14)
(1.53523e-05 1.64525e-13 5.21507e-14)
(1.53523e-05 2.01772e-13 5.192e-14)
(1.53523e-05 2.12011e-13 4.78376e-14)
(1.53523e-05 1.985e-13 3.67912e-14)
(1.53523e-05 1.66694e-13 1.37892e-14)
(1.53523e-05 1.2516e-13 -9.48452e-15)
(1.53523e-05 8.20445e-14 -2.29109e-14)
(1.53523e-05 4.45225e-14 -3.18887e-14)
(1.53523e-05 1.50818e-14 -3.54307e-14)
(1.53523e-05 -5.03158e-15 -3.53628e-14)
(1.53523e-05 -1.78024e-14 -3.20516e-14)
(1.53523e-05 -2.36737e-14 -2.84636e-14)
(1.53523e-05 -2.32072e-14 -2.45141e-14)
(1.53523e-05 -1.85211e-14 -1.85976e-14)
(1.53523e-05 -1.21499e-14 -1.13554e-14)
(1.53523e-05 -4.14753e-15 -5.50312e-15)
(1.53523e-05 3.81487e-15 -6.38926e-16)
(1.53523e-05 1.10914e-14 2.29661e-15)
(1.53523e-05 1.62159e-14 4.23326e-15)
(1.53523e-05 1.89013e-14 4.69764e-15)
(1.53523e-05 1.85532e-14 5.00081e-15)
(1.53523e-05 1.62078e-14 1.9771e-15)
(1.53523e-05 1.28669e-14 -7.07309e-16)
(1.53523e-05 1.03429e-14 -3.704e-15)
(1.53523e-05 9.35118e-15 -7.12893e-15)
(1.53523e-05 1.11275e-14 -1.14093e-14)
(1.53523e-05 1.50687e-14 -1.48256e-14)
(1.53523e-05 2.17854e-14 -1.66322e-14)
(1.53523e-05 3.12071e-14 -1.53309e-14)
(1.53523e-05 4.40206e-14 -1.04837e-14)
(1.53523e-05 5.95336e-14 -1.59434e-16)
(1.53523e-05 7.59363e-14 1.23255e-14)
(1.53523e-05 9.05921e-14 2.78996e-14)
(1.53523e-05 1.02786e-13 4.32225e-14)
(1.53523e-05 1.10449e-13 5.51211e-14)
(1.53523e-05 1.06749e-13 6.23025e-14)
(1.53523e-05 8.67699e-14 7.28171e-14)
(1.53523e-05 4.93729e-14 8.2234e-14)
(1.53523e-05 -1.05324e-14 8.26664e-14)
(1.53523e-05 -9.21507e-14 7.6617e-14)
(1.53523e-05 -1.91945e-13 5.57708e-14)
(1.53523e-05 -3.04728e-13 1.9177e-14)
(1.53523e-05 -4.25939e-13 -3.58506e-14)
(1.53523e-05 -5.35558e-13 -1.04164e-13)
(1.53523e-05 -6.267e-13 -1.69695e-13)
(1.53523e-05 -6.88038e-13 -2.1055e-13)
(1.53523e-05 -7.01783e-13 -2.23995e-13)
(1.53523e-05 -6.48649e-13 -2.1939e-13)
(1.53523e-05 -5.24343e-13 -1.89676e-13)
(1.53523e-05 -3.19026e-13 -1.58848e-13)
(1.53523e-05 -3.7168e-14 -1.27019e-13)
(1.53523e-05 3.01996e-13 -7.14021e-14)
(1.53523e-05 6.75973e-13 1.39371e-14)
(1.53523e-05 1.04749e-12 1.15516e-13)
(1.53523e-05 1.377e-12 2.53407e-13)
(1.53523e-05 1.61551e-12 3.60353e-13)
(1.53523e-05 1.72812e-12 4.04071e-13)
(1.53523e-05 1.70713e-12 4.05002e-13)
(1.53523e-05 1.55041e-12 3.65862e-13)
(1.53523e-05 1.27413e-12 2.46416e-13)
(1.53523e-05 9.07228e-13 1.13739e-13)
(1.53523e-05 4.94452e-13 -6.61732e-15)
(1.53523e-05 9.26081e-14 -1.29843e-13)
(1.53523e-05 -2.64647e-13 -2.45707e-13)
(1.53523e-05 -5.35333e-13 -3.97776e-13)
(1.53523e-05 -6.8814e-13 -5.21858e-13)
(1.53523e-05 -6.63889e-13 -6.16568e-13)
(1.53523e-05 -4.52629e-13 -7.16745e-13)
(1.53523e-05 -1.27965e-14 -7.78985e-13)
(1.53523e-05 6.50443e-13 -7.98662e-13)
(1.53523e-05 1.52187e-12 -7.024e-13)
(1.53523e-05 2.58283e-12 -4.476e-13)
(1.53523e-05 3.77889e-12 -6.18456e-14)
(1.53523e-05 4.9654e-12 4.72785e-13)
(1.53523e-05 6.11703e-12 1.03997e-12)
(1.53523e-05 7.00142e-12 1.55218e-12)
(1.53523e-05 7.4707e-12 1.83602e-12)
(1.53523e-05 7.34498e-12 1.87998e-12)
(1.53523e-05 6.56762e-12 1.60963e-12)
(1.53523e-05 5.00633e-12 4.70065e-13)
(1.53523e-05 3.00215e-12 1.01146e-12)
(1.53523e-05 1.47722e-12 2.53583e-12)
(2.58933e-05 5.67257e-14 8.02858e-13)
(2.58933e-05 -6.68576e-13 -2.23062e-12)
(2.58933e-05 -6.44455e-13 1.3039e-12)
(2.58933e-05 -1.28682e-12 -7.52838e-13)
(2.58933e-05 -1.34009e-12 -1.71941e-13)
(2.58933e-05 -1.4426e-12 -2.24508e-13)
(2.58933e-05 -1.4799e-12 -2.28085e-13)
(2.58933e-05 -1.46364e-12 -1.74515e-13)
(2.58933e-05 -1.41309e-12 -1.87556e-13)
(2.58933e-05 -1.31583e-12 -1.59377e-13)
(2.58933e-05 -1.17745e-12 -1.14964e-13)
(2.58933e-05 -1.00604e-12 -7.21678e-14)
(2.58933e-05 -8.05341e-13 -2.47475e-14)
(2.58933e-05 -5.87897e-13 1.3757e-14)
(2.58933e-05 -3.66642e-13 4.24014e-14)
(2.58933e-05 -1.53983e-13 5.54972e-14)
(2.58933e-05 3.20684e-14 5.89973e-14)
(2.58933e-05 1.83505e-13 5.7727e-14)
(2.58933e-05 2.9421e-13 5.67888e-14)
(2.58933e-05 3.60472e-13 5.36853e-14)
(2.58933e-05 3.81312e-13 4.95525e-14)
(2.58933e-05 3.61723e-13 4.2139e-14)
(2.58933e-05 3.12362e-13 2.66807e-14)
(2.58933e-05 2.46285e-13 9.24891e-15)
(2.58933e-05 1.75987e-13 -4.93628e-15)
(2.58933e-05 1.12049e-13 -1.53464e-14)
(2.58933e-05 6.03463e-14 -2.43021e-14)
(2.58933e-05 2.24302e-14 -2.94212e-14)
(2.58933e-05 -3.02198e-15 -3.33133e-14)
(2.58933e-05 -1.83607e-14 -3.28902e-14)
(2.58933e-05 -2.39848e-14 -3.12741e-14)
(2.58933e-05 -2.26055e-14 -2.59143e-14)
(2.58933e-05 -1.54926e-14 -2.08116e-14)
(2.58933e-05 -5.69102e-15 -1.43302e-14)
(2.58933e-05 5.74605e-15 -9.13912e-15)
(2.58933e-05 1.64511e-14 -3.38843e-15)
(2.58933e-05 2.45793e-14 1.53649e-16)
(2.58933e-05 2.87431e-14 2.90095e-15)
(2.58933e-05 2.91765e-14 2.67879e-15)
(2.58933e-05 2.63661e-14 1.74631e-15)
(2.58933e-05 2.31201e-14 2.25017e-16)
(2.58933e-05 2.13694e-14 -5.22582e-16)
(2.58933e-05 2.30535e-14 -3.45728e-15)
(2.58933e-05 2.86723e-14 -6.64217e-15)
(2.58933e-05 3.81315e-14 -9.83011e-15)
(2.58933e-05 5.11887e-14 -8.49166e-15)
(2.58933e-05 6.74919e-14 -4.12673e-15)
(2.58933e-05 8.79983e-14 5.42792e-15)
(2.58933e-05 1.10885e-13 1.86044e-14)
(2.58933e-05 1.34511e-13 3.45724e-14)
(2.58933e-05 1.55701e-13 5.08607e-14)
(2.58933e-05 1.69104e-13 6.62853e-14)
(2.58933e-05 1.70564e-13 7.683e-14)
(2.58933e-05 1.53011e-13 8.01955e-14)
(2.58933e-05 1.10505e-13 7.51619e-14)
(2.58933e-05 3.55579e-14 6.63994e-14)
(2.58933e-05 -7.57956e-14 5.20769e-14)
(2.58933e-05 -2.20691e-13 3.4799e-14)
(2.58933e-05 -3.90388e-13 2.8061e-15)
(2.58933e-05 -5.78035e-13 -4.32212e-14)
(2.58933e-05 -7.72084e-13 -1.03269e-13)
(2.58933e-05 -9.528e-13 -1.6541e-13)
(2.58933e-05 -1.09712e-12 -2.16474e-13)
(2.58933e-05 -1.17934e-12 -2.42572e-13)
(2.58933e-05 -1.17894e-12 -2.4404e-13)
(2.58933e-05 -1.0737e-12 -2.22442e-13)
(2.58933e-05 -8.42585e-13 -1.60482e-13)
(2.58933e-05 -4.69936e-13 -7.40299e-14)
(2.58933e-05 3.95532e-14 1.67896e-14)
(2.58933e-05 6.50789e-13 7.33623e-14)
(2.58933e-05 1.29693e-12 1.3449e-13)
(2.58933e-05 1.91625e-12 2.00053e-13)
(2.58933e-05 2.4417e-12 2.72937e-13)
(2.58933e-05 2.80798e-12 3.16434e-13)
(2.58933e-05 2.96249e-12 3.31158e-13)
(2.58933e-05 2.88583e-12 3.21743e-13)
(2.58933e-05 2.57989e-12 2.75543e-13)
(2.58933e-05 2.07663e-12 1.7783e-13)
(2.58933e-05 1.43926e-12 5.94255e-14)
(2.58933e-05 7.46601e-13 -7.22841e-14)
(2.58933e-05 8.57113e-14 -2.08649e-13)
(2.58933e-05 -4.6003e-13 -3.41684e-13)
(2.58933e-05 -8.31456e-13 -5.05666e-13)
(2.58933e-05 -9.85559e-13 -6.21484e-13)
(2.58933e-05 -8.73653e-13 -6.58111e-13)
(2.58933e-05 -4.185e-13 -5.97628e-13)
(2.58933e-05 4.2336e-13 -5.59618e-13)
(2.58933e-05 1.62783e-12 -4.88242e-13)
(2.58933e-05 3.13842e-12 -3.05404e-13)
(2.58933e-05 4.91391e-12 4.99912e-14)
(2.58933e-05 6.86493e-12 5.5505e-13)
(2.58933e-05 8.86448e-12 1.06933e-12)
(2.58933e-05 1.06996e-11 1.49109e-12)
(2.58933e-05 1.21027e-11 1.76279e-12)
(2.58933e-05 1.28332e-11 1.80445e-12)
(2.58933e-05 1.26111e-11 1.73856e-12)
(2.58933e-05 1.12191e-11 1.40733e-12)
(2.58933e-05 8.44897e-12 1.95727e-13)
(2.58933e-05 4.97267e-12 7.90065e-13)
(2.58932e-05 2.20197e-12 2.74573e-12)
(3.16213e-05 -3.41178e-14 6.53819e-13)
(3.16213e-05 -7.06906e-13 -2.26096e-12)
(3.16213e-05 -7.65971e-13 1.46588e-12)
(3.16213e-05 -1.54326e-12 -7.69531e-13)
(3.16213e-05 -1.54613e-12 -1.3322e-14)
(3.16213e-05 -1.6345e-12 -9.51394e-14)
(3.16213e-05 -1.67267e-12 -1.06008e-13)
(3.16213e-05 -1.65921e-12 -4.35555e-14)
(3.16213e-05 -1.61678e-12 -8.48324e-14)
(3.16213e-05 -1.50437e-12 -6.3864e-14)
(3.16213e-05 -1.34761e-12 -3.52056e-14)
(3.16213e-05 -1.13757e-12 -6.04647e-15)
(3.16213e-05 -9.07655e-13 1.67685e-14)
(3.16213e-05 -6.46862e-13 3.83208e-14)
(3.16213e-05 -3.8899e-13 5.10219e-14)
(3.16213e-05 -1.29036e-13 6.31175e-14)
(3.16213e-05 9.11173e-14 7.0396e-14)
(3.16213e-05 2.62652e-13 6.81912e-14)
(3.16213e-05 3.82715e-13 4.83437e-14)
(3.16213e-05 4.49872e-13 2.92407e-14)
(3.16213e-05 4.6543e-13 1.23159e-14)
(3.16213e-05 4.38707e-13 2.30725e-15)
(3.16213e-05 3.8455e-13 -4.17331e-15)
(3.16213e-05 3.11639e-13 -1.05061e-14)
(3.16213e-05 2.36254e-13 -1.60581e-14)
(3.16213e-05 1.63867e-13 -2.32049e-14)
(3.16213e-05 1.02027e-13 -3.05694e-14)
(3.16213e-05 5.51754e-14 -3.87974e-14)
(3.16213e-05 2.11359e-14 -4.34187e-14)
(3.16213e-05 -7.62741e-16 -4.48884e-14)
(3.16213e-05 -1.26453e-14 -4.00815e-14)
(3.16213e-05 -1.58369e-14 -3.34871e-14)
(3.16213e-05 -1.21226e-14 -2.50974e-14)
(3.16213e-05 -3.49109e-15 -1.80616e-14)
(3.16213e-05 7.26932e-15 -1.06354e-14)
(3.16213e-05 1.80872e-14 -4.99356e-15)
(3.16213e-05 2.59329e-14 -4.60976e-16)
(3.16213e-05 3.06754e-14 1.28053e-15)
(3.16213e-05 3.18288e-14 1.99411e-15)
(3.16213e-05 3.01976e-14 1.48054e-15)
(3.16213e-05 2.83759e-14 1.78851e-15)
(3.16213e-05 2.83473e-14 -2.92129e-17)
(3.16213e-05 3.14798e-14 -4.26813e-15)
(3.16213e-05 3.90973e-14 -1.13097e-14)
(3.16213e-05 4.98207e-14 -1.59029e-14)
(3.16213e-05 6.76114e-14 -1.63815e-14)
(3.16213e-05 8.48317e-14 -1.11014e-14)
(3.16213e-05 1.08967e-13 -1.33439e-15)
(3.16213e-05 1.30879e-13 1.23937e-14)
(3.16213e-05 1.54758e-13 2.97136e-14)
(3.16213e-05 1.73663e-13 5.05564e-14)
(3.16213e-05 1.84522e-13 7.30992e-14)
(3.16213e-05 1.80423e-13 9.50951e-14)
(3.16213e-05 1.52781e-13 1.0589e-13)
(3.16213e-05 9.53959e-14 1.02784e-13)
(3.16213e-05 -1.60885e-15 8.26285e-14)
(3.16213e-05 -1.33284e-13 7.25812e-14)
(3.16213e-05 -3.05455e-13 5.72242e-14)
(3.16213e-05 -4.97568e-13 3.9111e-14)
(3.16213e-05 -7.1636e-13 -1.93661e-15)
(3.16213e-05 -9.27996e-13 -5.05891e-14)
(3.16213e-05 -1.12908e-12 -1.03903e-13)
(3.16213e-05 -1.27283e-12 -1.47587e-13)
(3.16213e-05 -1.35409e-12 -1.89558e-13)
(3.16213e-05 -1.33698e-12 -2.26535e-13)
(3.16213e-05 -1.195e-12 -2.28909e-13)
(3.16213e-05 -9.08404e-13 -1.8461e-13)
(3.16213e-05 -4.51022e-13 -9.58525e-14)
(3.16213e-05 1.51313e-13 1.15347e-14)
(3.16213e-05 8.73248e-13 5.18371e-14)
(3.16213e-05 1.59827e-12 6.47401e-14)
(3.16213e-05 2.25877e-12 7.20571e-14)
(3.16213e-05 2.80762e-12 6.91959e-14)
(3.16213e-05 3.16161e-12 6.80196e-14)
(3.16213e-05 3.27397e-12 7.35273e-14)
(3.16213e-05 3.13089e-12 9.59267e-14)
(3.16213e-05 2.74306e-12 1.06055e-13)
(3.16213e-05 2.15164e-12 7.75674e-14)
(3.16213e-05 1.42652e-12 2.22076e-14)
(3.16213e-05 6.5504e-13 -9.68407e-14)
(3.16213e-05 -4.58212e-14 -2.3319e-13)
(3.16213e-05 -6.00499e-13 -4.11683e-13)
(3.16213e-05 -9.53123e-13 -5.8831e-13)
(3.16213e-05 -1.05934e-12 -7.39992e-13)
(3.16213e-05 -8.64519e-13 -8.16398e-13)
(3.16213e-05 -2.76323e-13 -7.95447e-13)
(3.16213e-05 7.10399e-13 -7.55441e-13)
(3.16213e-05 2.12707e-12 -6.9286e-13)
(3.16213e-05 3.8184e-12 -5.84405e-13)
(3.16213e-05 5.86539e-12 -2.72497e-13)
(3.16213e-05 8.02047e-12 1.36837e-13)
(3.16213e-05 1.0315e-11 5.34933e-13)
(3.16213e-05 1.22609e-11 7.58995e-13)
(3.16213e-05 1.37689e-11 8.29644e-13)
(3.16213e-05 1.4517e-11 8.4294e-13)
(3.16213e-05 1.42042e-11 8.30067e-13)
(3.16213e-05 1.26126e-11 5.79508e-13)
(3.16213e-05 9.30619e-12 -5.35256e-13)
(3.16213e-05 5.31891e-12 7.31886e-13)
(3.16213e-05 2.18702e-12 2.99908e-12)
(3.84476e-05 1.82879e-13 7.82208e-13)
(3.84476e-05 -1.62517e-12 -2.31168e-12)
(3.84476e-05 -1.30603e-13 1.6068e-12)
(3.84476e-05 -1.55781e-12 -8.41239e-13)
(3.84476e-05 -1.48043e-12 1.74413e-14)
(3.84476e-05 -1.58384e-12 -1.18963e-13)
(3.84476e-05 -1.63395e-12 -1.30308e-13)
(3.84476e-05 -1.58763e-12 -4.96351e-14)
(3.84476e-05 -1.5575e-12 -8.74579e-14)
(3.84476e-05 -1.46009e-12 -7.2077e-14)
(3.84476e-05 -1.31199e-12 -4.9015e-14)
(3.84476e-05 -1.10818e-12 -2.74609e-14)
(3.84476e-05 -8.68718e-13 -8.87772e-16)
(3.84476e-05 -6.03214e-13 2.82564e-14)
(3.84476e-05 -3.3962e-13 5.62423e-14)
(3.84476e-05 -9.20872e-14 8.20824e-14)
(3.84476e-05 1.18444e-13 1.05966e-13)
(3.84476e-05 2.83468e-13 1.02151e-13)
(3.84476e-05 3.89877e-13 7.25244e-14)
(3.84476e-05 4.45431e-13 4.34757e-14)
(3.84476e-05 4.56382e-13 2.02687e-14)
(3.84476e-05 4.35779e-13 5.92274e-15)
(3.84476e-05 3.88836e-13 -3.0504e-15)
(3.84476e-05 3.25132e-13 -1.10977e-14)
(3.84476e-05 2.55111e-13 -2.19533e-14)
(3.84476e-05 1.90719e-13 -3.37739e-14)
(3.84476e-05 1.30848e-13 -4.82257e-14)
(3.84476e-05 8.47404e-14 -5.88371e-14)
(3.84476e-05 4.88486e-14 -6.50327e-14)
(3.84476e-05 2.39577e-14 -6.4956e-14)
(3.84476e-05 6.07643e-15 -5.86504e-14)
(3.84476e-05 -3.12754e-15 -4.78189e-14)
(3.84476e-05 -6.08397e-15 -3.49053e-14)
(3.84476e-05 -2.21935e-15 -2.18052e-14)
(3.84476e-05 3.05346e-15 -1.11021e-14)
(3.84476e-05 1.04021e-14 -2.9241e-15)
(3.84476e-05 1.66706e-14 2.73497e-15)
(3.84476e-05 2.21809e-14 5.70741e-15)
(3.84476e-05 2.56405e-14 6.38426e-15)
(3.84476e-05 2.88906e-14 5.82827e-15)
(3.84476e-05 3.15506e-14 4.12801e-15)
(3.84476e-05 3.5371e-14 -6.59971e-17)
(3.84476e-05 3.85245e-14 -9.18523e-15)
(3.84476e-05 4.50802e-14 -1.89345e-14)
(3.84476e-05 5.42501e-14 -2.67873e-14)
(3.84476e-05 7.19769e-14 -2.69433e-14)
(3.84476e-05 8.97671e-14 -2.02968e-14)
(3.84476e-05 1.15102e-13 -5.04719e-15)
(3.84476e-05 1.3318e-13 1.27633e-14)
(3.84476e-05 1.5295e-13 3.76967e-14)
(3.84476e-05 1.63673e-13 6.68728e-14)
(3.84476e-05 1.64092e-13 1.05269e-13)
(3.84476e-05 1.46365e-13 1.4335e-13)
(3.84476e-05 1.05518e-13 1.65098e-13)
(3.84476e-05 3.71374e-14 1.62372e-13)
(3.84476e-05 -5.97169e-14 1.44341e-13)
(3.84476e-05 -1.84485e-13 1.30838e-13)
(3.84476e-05 -3.42709e-13 1.12072e-13)
(3.84476e-05 -5.31743e-13 7.43762e-14)
(3.84476e-05 -7.48472e-13 1.0493e-14)
(3.84476e-05 -9.39235e-13 -6.18687e-14)
(3.84476e-05 -1.1074e-12 -1.28217e-13)
(3.84476e-05 -1.22322e-12 -1.91531e-13)
(3.84476e-05 -1.26894e-12 -2.73021e-13)
(3.84476e-05 -1.21742e-12 -3.58302e-13)
(3.84476e-05 -1.03242e-12 -3.94547e-13)
(3.84476e-05 -6.73703e-13 -3.21821e-13)
(3.84476e-05 -1.8847e-13 -1.80085e-13)
(3.84476e-05 3.70131e-13 -5.38096e-14)
(3.84476e-05 1.00563e-12 3.84088e-14)
(3.84476e-05 1.64209e-12 9.84103e-14)
(3.84476e-05 2.2028e-12 1.1373e-13)
(3.84476e-05 2.61199e-12 1.1242e-13)
(3.84476e-05 2.84049e-12 1.54141e-13)
(3.84476e-05 2.86124e-12 2.3587e-13)
(3.84476e-05 2.65738e-12 2.96642e-13)
(3.84476e-05 2.25653e-12 2.99745e-13)
(3.84476e-05 1.71137e-12 2.3562e-13)
(3.84476e-05 1.09119e-12 1.20852e-13)
(3.84476e-05 4.46869e-13 -5.46224e-14)
(3.84476e-05 -9.81729e-14 -2.85692e-13)
(3.84476e-05 -4.89336e-13 -5.83962e-13)
(3.84476e-05 -7.15316e-13 -9.17422e-13)
(3.84476e-05 -6.90926e-13 -1.21379e-12)
(3.84476e-05 -3.76338e-13 -1.36833e-12)
(3.84476e-05 1.55934e-13 -1.3651e-12)
(3.84476e-05 1.0235e-12 -1.30778e-12)
(3.84476e-05 2.28041e-12 -1.22743e-12)
(3.84476e-05 3.90558e-12 -9.75514e-13)
(3.84476e-05 5.95232e-12 -4.48319e-13)
(3.84476e-05 8.0163e-12 2.36966e-13)
(3.84476e-05 1.00308e-11 7.46553e-13)
(3.84476e-05 1.16879e-11 1.03711e-12)
(3.84476e-05 1.28173e-11 1.1848e-12)
(3.84476e-05 1.32853e-11 1.41417e-12)
(3.84476e-05 1.28147e-11 1.62518e-12)
(3.84475e-05 1.08438e-11 1.33864e-12)
(3.84475e-05 7.27425e-12 1.19334e-13)
(3.84475e-05 4.34034e-12 1.41247e-12)
(3.84475e-05 2.75191e-12 3.73925e-12)
(5.72845e-05 7.89946e-13 1.45361e-12)
(5.72845e-05 -2.27496e-12 -4.11486e-12)
(5.72845e-05 1.0629e-13 2.92357e-12)
(5.72845e-05 -1.65489e-12 -1.37226e-12)
(5.72845e-05 -1.77149e-12 -2.24829e-13)
(5.72845e-05 -1.96234e-12 -2.90204e-13)
(5.72845e-05 -2.13543e-12 -4.3189e-13)
(5.72845e-05 -2.16579e-12 -3.64143e-13)
(5.72845e-05 -2.15108e-12 -4.10103e-13)
(5.72845e-05 -2.02578e-12 -3.5248e-13)
(5.72845e-05 -1.79789e-12 -2.52544e-13)
(5.72845e-05 -1.49279e-12 -1.63879e-13)
(5.72845e-05 -1.12772e-12 -7.11157e-14)
(5.72845e-05 -7.43786e-13 6.7897e-15)
(5.72845e-05 -3.70661e-13 7.20221e-14)
(5.72845e-05 -4.19e-14 1.19928e-13)
(5.72845e-05 2.39603e-13 1.59822e-13)
(5.72845e-05 4.57054e-13 1.86578e-13)
(5.72845e-05 5.98635e-13 1.97023e-13)
(5.72845e-05 6.63109e-13 1.84593e-13)
(5.72845e-05 6.66451e-13 1.57163e-13)
(5.72845e-05 6.25349e-13 1.19706e-13)
(5.72845e-05 5.55657e-13 8.065e-14)
(5.72845e-05 4.69098e-13 4.21514e-14)
(5.72845e-05 3.74994e-13 3.86899e-15)
(5.72845e-05 2.87148e-13 -3.1703e-14)
(5.72845e-05 2.09132e-13 -6.29098e-14)
(5.72845e-05 1.40991e-13 -8.66423e-14)
(5.72845e-05 8.59052e-14 -1.00846e-13)
(5.72845e-05 4.33748e-14 -1.03306e-13)
(5.72845e-05 1.67358e-14 -9.35337e-14)
(5.72845e-05 1.64285e-15 -7.65329e-14)
(5.72845e-05 -2.90654e-15 -5.53752e-14)
(5.72845e-05 3.93835e-16 -3.46703e-14)
(5.72845e-05 8.15756e-15 -1.59411e-14)
(5.72845e-05 1.74357e-14 -1.76583e-15)
(5.72845e-05 2.69991e-14 7.67657e-15)
(5.72845e-05 3.45234e-14 1.27079e-14)
(5.72845e-05 4.12277e-14 1.46812e-14)
(5.72845e-05 4.64713e-14 1.36358e-14)
(5.72845e-05 5.16551e-14 9.66352e-15)
(5.72845e-05 5.54966e-14 1.58081e-15)
(5.72845e-05 5.82208e-14 -1.15399e-14)
(5.72845e-05 6.14284e-14 -2.61118e-14)
(5.72845e-05 7.05913e-14 -3.53228e-14)
(5.72845e-05 8.73665e-14 -3.38654e-14)
(5.72845e-05 1.138e-13 -1.99805e-14)
(5.72845e-05 1.45559e-13 5.31431e-15)
(5.72845e-05 1.80317e-13 4.39393e-14)
(5.72845e-05 2.10077e-13 9.06156e-14)
(5.72845e-05 2.28576e-13 1.43001e-13)
(5.72845e-05 2.26982e-13 1.96947e-13)
(5.72845e-05 1.99943e-13 2.44715e-13)
(5.72845e-05 1.41429e-13 2.75226e-13)
(5.72845e-05 4.62066e-14 2.74671e-13)
(5.72845e-05 -8.71037e-14 2.56468e-13)
(5.72845e-05 -2.52757e-13 2.20481e-13)
(5.72845e-05 -4.47424e-13 1.6769e-13)