/*--------------------------------*- C++ -*----------------------------------*\
| =========                 |                                                 |
| \\      /  F ield         | OpenFOAM: The Open Source CFD Toolbox           |
|  \\    /   O peration     | Version:  2412                                  |
|   \\  /    A nd           | Website:  www.openfoam.com                      |
|    \\/     M anipulation  |                                                 |
\*---------------------------------------------------------------------------*/
FoamFile
{
    version     2.0;
    format      ascii;
    arch        "LSB;label=32;scalar=64";
    class       surfaceScalarField;
    location    "0.00015";
    object      phi;
}
// * * * * * * * * * * * * * * * * * * * * * * * * * * * * * * * * * * * * * //

dimensions      [0 3 -1 0 0 0 0];

oriented        oriented;

internalField   nonuniform List<scalar> 
40656
(
5.37644e-18
5.50558e-24
5.72498e-24
5.37644e-18
-2.02966e-24
-2.16591e-24
5.37644e-18
8.8156e-25
7.99871e-25
5.37644e-18
-9.55119e-25
-1.08506e-24
5.37644e-18
-2.57764e-25
-3.42718e-25
5.37644e-18
-1.23188e-25
-1.82842e-25
5.37644e-18
-2.18658e-25
-2.68006e-25
5.37644e-18
-1.90316e-26
-5.29238e-26
5.37644e-18
-1.25423e-26
-3.53351e-26
5.37644e-18
-1.7878e-26
-3.46026e-26
5.37644e-18
1.0923e-27
-1.17947e-26
5.37644e-18
1.97953e-27
-7.25746e-27
5.37644e-18
5.15096e-28
-6.46553e-27
5.37644e-18
1.71858e-27
-3.71232e-27
5.37644e-18
3.09057e-27
-1.24469e-27
5.37644e-18
4.35624e-27
7.30268e-28
5.37644e-18
5.40815e-27
2.24781e-27
5.37644e-18
5.91903e-27
3.084e-27
5.37644e-18
5.90342e-27
3.29367e-27
5.37644e-18
5.63295e-27
3.14571e-27
5.37644e-18
5.14953e-27
2.74172e-27
5.37644e-18
4.54892e-27
2.19723e-27
5.37644e-18
3.90483e-27
1.57132e-27
5.37644e-18
3.17789e-27
8.38058e-28
5.37644e-18
2.41735e-27
4.32867e-29
5.37644e-18
1.62638e-27
-7.7979e-28
5.37644e-18
7.76039e-28
-1.62933e-27
5.37644e-18
-1.86462e-28
-2.51757e-27
5.37644e-18
-1.19442e-27
-3.52247e-27
5.37644e-18
-2.19562e-27
-4.52876e-27
5.37644e-18
-3.22075e-27
-5.52214e-27
5.37644e-18
-4.14179e-27
-6.51902e-27
5.37644e-18
-4.91905e-27
-7.41985e-27
5.37644e-18
-5.57421e-27
-8.23542e-27
5.37644e-18
-6.22892e-27
-8.99306e-27
5.37644e-18
-6.88786e-27
-9.6858e-27
5.37644e-18
-7.47871e-27
-1.02638e-26
5.37644e-18
-7.91462e-27
-1.07341e-26
5.37644e-18
-8.24361e-27
-1.11511e-26
5.37644e-18
-8.52397e-27
-1.15146e-26
5.37644e-18
-8.78715e-27
-1.17997e-26
5.37644e-18
-9.10942e-27
-1.20732e-26
5.37644e-18
-9.44095e-27
-1.23737e-26
5.37644e-18
-9.76724e-27
-1.26674e-26
5.37644e-18
-1.00778e-26
-1.29415e-26
5.37644e-18
-1.03694e-26
-1.3191e-26
5.37644e-18
-1.06409e-26
-1.34125e-26
5.37644e-18
-1.08916e-26
-1.36039e-26
5.37644e-18
-1.11179e-26
-1.37652e-26
5.37644e-18
-1.13191e-26
-1.38959e-26
5.37644e-18
-1.14933e-26
-1.39969e-26
5.37644e-18
-1.16401e-26
-1.40703e-26
5.37644e-18
-1.17592e-26
-1.41176e-26
5.37644e-18
-1.18514e-26
-1.41387e-26
5.37644e-18
-1.19181e-26
-1.41325e-26
5.37644e-18
-1.19597e-26
-1.40991e-26
5.37644e-18
-1.19778e-26
-1.40382e-26
5.37644e-18
-1.19711e-26
-1.39481e-26
5.37644e-18
-1.19256e-26
-1.38279e-26
5.37644e-18
-1.18535e-26
-1.36736e-26
5.37644e-18
-1.17555e-26
-1.34886e-26
5.37644e-18
-1.16353e-26
-1.32855e-26
5.37644e-18
-1.14946e-26
-1.30662e-26
5.37644e-18
-1.1335e-26
-1.283e-26
5.37644e-18
-1.11574e-26
-1.25774e-26
5.37644e-18
-1.09633e-26
-1.23094e-26
5.37644e-18
-1.07538e-26
-1.20257e-26
5.37644e-18
-1.05282e-26
-1.17273e-26
5.37644e-18
-1.0286e-26
-1.14156e-26
5.37644e-18
-1.00287e-26
-1.10918e-26
5.37644e-18
-9.75885e-27
-1.07575e-26
5.37644e-18
-9.47747e-27
-1.0414e-26
5.37644e-18
-9.18506e-27
-1.00615e-26
5.37644e-18
-8.88292e-27
-9.70124e-27
5.37644e-18
-8.57274e-27
-9.33374e-27
5.37644e-18
-8.25484e-27
-8.95861e-27
5.37644e-18
-7.92811e-27
-8.57702e-27
5.37644e-18
-7.59261e-27
-8.19058e-27
5.37644e-18
-7.2514e-27
-7.80033e-27
5.37644e-18
-6.90649e-27
-7.40802e-27
5.37644e-18
-6.5582e-27
-7.01409e-27
5.37644e-18
-6.20645e-27
-6.61916e-27
5.37644e-18
-5.85134e-27
-6.22336e-27
5.37644e-18
-5.49233e-27
-5.82601e-27
5.37644e-18
-5.12725e-27
-5.42559e-27
5.37644e-18
-4.75095e-27
-5.02285e-27
5.37644e-18
-4.36804e-27
-4.61424e-27
5.37644e-18
-3.97886e-27
-4.19959e-27
5.37644e-18
-3.58063e-27
-3.77735e-27
5.37644e-18
-3.18178e-27
-3.35637e-27
5.37644e-18
-2.76342e-27
-2.91799e-27
5.37644e-18
-2.30333e-27
-2.43567e-27
5.37644e-18
-1.95404e-27
-2.07041e-27
5.37644e-18
-1.56014e-27
-1.67527e-27
5.37644e-18
-1.00472e-27
-1.09589e-27
5.37644e-18
-1.98002e-27
-2.17559e-27
5.37644e-18
-1.00278e-27
-1.17188e-27
5.37644e-18
-3.9882e-27
-4.10619e-27
5.37644e-18
-5.73222e-27
-5.69126e-27
-1.33426e-27
-1.31924e-27
1.12778e-17
6.22692e-24
4.2705e-23
1.12778e-17
-1.3588e-24
-1.78139e-23
1.12778e-17
2.222e-24
4.02674e-24
1.12778e-17
-1.57011e-25
-5.7858e-24
1.12778e-17
7.56224e-25
-2.28474e-24
1.12778e-17
7.76546e-25
-1.35661e-24
1.12778e-17
4.80956e-25
-1.72765e-24
1.12778e-17
5.53063e-25
-7.60783e-25
1.12778e-17
4.19099e-25
-5.45518e-25
1.12778e-17
2.95798e-25
-4.31607e-25
1.12778e-17
2.30212e-25
-2.67651e-25
1.12778e-17
1.68444e-25
-1.95327e-25
1.12778e-17
1.23485e-25
-1.51948e-25
1.12778e-17
9.55682e-26
-1.14167e-25
1.12778e-17
7.7778e-26
-8.97583e-26
1.12778e-17
6.67278e-26
-7.39541e-26
1.12778e-17
6.00209e-26
-6.28447e-26
1.12778e-17
5.55636e-26
-5.57723e-26
1.12778e-17
5.22379e-26
-5.17942e-26
1.12778e-17
4.95069e-26
-4.97229e-26
1.12778e-17
4.67913e-26
-4.88665e-26
1.12778e-17
4.4018e-26
-4.87622e-26
1.12778e-17
4.11607e-26
-4.91271e-26
1.12778e-17
3.82369e-26
-4.98704e-26
1.12778e-17
3.53679e-26
-5.0826e-26
1.12778e-17
3.24627e-26
-5.19367e-26
1.12778e-17
2.94461e-26
-5.3206e-26
1.12778e-17
2.64087e-26
-5.44938e-26
1.12778e-17
2.34078e-26
-5.58354e-26
1.12778e-17
2.05206e-26
-5.72967e-26
1.12778e-17
1.78059e-26
-5.88346e-26
1.12778e-17
1.53189e-26
-6.03755e-26
1.12778e-17
1.30346e-26
-6.17115e-26
1.12778e-17
1.08949e-26
-6.29207e-26
1.12778e-17
8.86474e-27
-6.4105e-26
1.12778e-17
6.98181e-27
-6.52335e-26
1.12778e-17
5.18632e-27
-6.62269e-26
1.12778e-17
3.61872e-27
-6.73731e-26
1.12778e-17
2.22732e-27
-6.84732e-26
1.12778e-17
9.59312e-28
-6.93985e-26
1.12778e-17
-1.6378e-28
-6.99771e-26
1.12778e-17
-1.2098e-27
-7.03498e-26
1.12778e-17
-2.1827e-27
-7.06704e-26
1.12778e-17
-3.07165e-27
-7.0952e-26
1.12778e-17
-3.87977e-27
-7.11501e-26
1.12778e-17
-4.60963e-27
-7.12537e-26
1.12778e-17
-5.26267e-27
-7.12563e-26
1.12778e-17
-5.84231e-27
-7.11551e-26
1.12778e-17
-6.35148e-27
-7.0947e-26
1.12778e-17
-6.7894e-27
-7.06317e-26
1.12778e-17
-7.15736e-27
-7.02121e-26
1.12778e-17
-7.46021e-27
-6.96937e-26
1.12778e-17
-7.703e-27
-6.90812e-26
1.12778e-17
-7.89027e-27
-6.83786e-26
1.12778e-17
-8.02739e-27
-6.75844e-26
1.12778e-17
-8.11736e-27
-6.66995e-26
1.12778e-17
-8.16168e-27
-6.57297e-26
1.12778e-17
-8.16099e-27
-6.46792e-26
1.12778e-17
-8.10596e-27
-6.35509e-26
1.12778e-17
-8.01348e-27
-6.23519e-26
1.12778e-17
-7.8885e-27
-6.10888e-26
1.12778e-17
-7.73582e-27
-5.97704e-26
1.12778e-17
-7.55887e-27
-5.83987e-26
1.12778e-17
-7.36045e-27
-5.69741e-26
1.12778e-17
-7.14282e-27
-5.54998e-26
1.12778e-17
-6.9082e-27
-5.39803e-26
1.12778e-17
-6.65814e-27
-5.24197e-26
1.12778e-17
-6.39397e-27
-5.08236e-26
1.12778e-17
-6.12017e-27
-4.91971e-26
1.12778e-17
-5.83815e-27
-4.75445e-26
1.12778e-17
-5.54966e-27
-4.5868e-26
1.12778e-17
-5.25722e-27
-4.41726e-26
1.12778e-17
-4.96299e-27
-4.2461e-26
1.12778e-17
-4.66863e-27
-4.07372e-26
1.12778e-17
-4.37566e-27
-3.90029e-26
1.12778e-17
-4.08491e-27
-3.7261e-26
1.12778e-17
-3.79731e-27
-3.5516e-26
1.12778e-17
-3.51561e-27
-3.37731e-26
1.12778e-17
-3.24124e-27
-3.20338e-26
1.12778e-17
-2.97459e-27
-3.03018e-26
1.12778e-17
-2.71643e-27
-2.85789e-26
1.12778e-17
-2.46651e-27
-2.68689e-26
1.12778e-17
-2.22441e-27
-2.51721e-26
1.12778e-17
-1.98863e-27
-2.34896e-26
1.12778e-17
-1.75816e-27
-2.18189e-26
1.12778e-17
-1.53553e-27
-2.0159e-26
1.12778e-17
-1.32357e-27
-1.85073e-26
1.12778e-17
-1.12206e-27
-1.68438e-26
1.12778e-17
-9.32948e-28
-1.51585e-26
1.12778e-17
-7.77578e-28
-1.35091e-26
1.12778e-17
-6.36899e-28
-1.17319e-26
1.12778e-17
-4.86487e-28
-9.78215e-27
1.12778e-17
-5.59087e-28
-8.66784e-27
1.12778e-17
-5.94583e-28
-6.64364e-27
1.12778e-17
-5.30772e-28
-3.91235e-27
1.12778e-17
-2.47592e-27
-9.10762e-27
1.12778e-17
-1.91757e-27
1.9897e-27
1.12778e-17
-7.20653e-27
-1.29589e-26
1.12778e-17
-9.67069e-27
-1.41536e-26
-7.37505e-27
2.45589e-26
1.49768e-17
5.15239e-24
5.37179e-23
1.49768e-17
7.77364e-25
-3.33269e-23
1.49768e-17
1.73821e-24
1.1534e-23
1.49768e-17
2.60744e-25
-9.13858e-24
1.49768e-17
9.03309e-25
-2.37125e-24
1.49768e-17
7.42955e-25
-8.73019e-25
1.49768e-17
5.37688e-25
-2.02479e-24
1.49768e-17
5.69874e-25
-6.5066e-25
1.49768e-17
4.3065e-25
-4.90722e-25
1.49768e-17
3.21915e-25
-4.38284e-25
1.49768e-17
2.55353e-25
-2.51403e-25
1.49768e-17
1.89246e-25
-1.84888e-25
1.49768e-17
1.39549e-25
-1.45717e-25
1.49768e-17
1.07737e-25
-1.01741e-25
1.49768e-17
8.70922e-26
-7.25768e-26
1.49768e-17
7.40792e-26
-5.37928e-26
1.49768e-17
6.61581e-26
-3.99522e-26
1.49768e-17
6.10263e-26
-3.09343e-26
1.49768e-17
5.73234e-26
-2.60267e-26
1.49768e-17
5.43237e-26
-2.39589e-26
1.49768e-17
5.13752e-26
-2.37682e-26
1.49768e-17
4.82003e-26
-2.48197e-26
1.49768e-17
4.47883e-26
-2.67065e-26
1.49768e-17
4.13315e-26
-2.90929e-26
1.49768e-17
3.7915e-26
-3.17259e-26
1.49768e-17
3.43035e-26
-3.44666e-26
1.49768e-17
3.05607e-26
-3.72508e-26
1.49768e-17
2.70065e-26
-4.00078e-26
1.49768e-17
2.35906e-26
-4.27287e-26
1.49768e-17
2.03224e-26
-4.53553e-26
1.49768e-17
1.72256e-26
-4.79223e-26
1.49768e-17
1.42893e-26
-5.05198e-26
1.49768e-17
1.15177e-26
-5.31917e-26
1.49768e-17
8.8983e-27
-5.58505e-26
1.49768e-17
6.42326e-27
-5.84823e-26
1.49768e-17
4.22973e-27
-6.1029e-26
1.49768e-17
2.25996e-27
-6.33425e-26
1.49768e-17
5.17332e-28
-6.56433e-26
1.49768e-17
-1.03277e-27
-6.78828e-26
1.49768e-17
-2.5531e-27
-6.98143e-26
1.49768e-17
-3.94373e-27
-7.13771e-26
1.49768e-17
-5.22973e-27
-7.27227e-26
1.49768e-17
-6.39999e-27
-7.39231e-26
1.49768e-17
-7.4566e-27
-7.49854e-26
1.49768e-17
-8.40962e-27
-7.59103e-26
1.49768e-17
-9.26075e-27
-7.66988e-26
1.49768e-17
-1.00125e-26
-7.7346e-26
1.49768e-17
-1.06671e-26
-7.78455e-26
1.49768e-17
-1.12248e-26
-7.81919e-26
1.49768e-17
-1.16852e-26
-7.83856e-26
1.49768e-17
-1.20522e-26
-7.843e-26
1.49768e-17
-1.23342e-26
-7.83283e-26
1.49768e-17
-1.2538e-26
-7.8086e-26
1.49768e-17
-1.26703e-26
-7.77039e-26
1.49768e-17
-1.27391e-26
-7.71836e-26
1.49768e-17
-1.27496e-26
-7.65313e-26
1.49768e-17
-1.27022e-26
-7.57514e-26
1.49768e-17
-1.25966e-26
-7.48468e-26
1.49768e-17
-1.24357e-26
-7.38288e-26
1.49768e-17
-1.22275e-26
-7.27135e-26
1.49768e-17
-1.19799e-26
-7.15093e-26
1.49768e-17
-1.16975e-26
-7.02107e-26
1.49768e-17
-1.13845e-26
-6.88179e-26
1.49768e-17
-1.10443e-26
-6.73382e-26
1.49768e-17
-1.06799e-26
-6.5779e-26
1.49768e-17
-1.02953e-26
-6.41442e-26
1.49768e-17
-9.89213e-27
-6.24408e-26
1.49768e-17
-9.47316e-27
-6.06774e-26
1.49768e-17
-9.04293e-27
-5.88598e-26
1.49768e-17
-8.60371e-27
-5.69917e-26
1.49768e-17
-8.15689e-27
-5.50804e-26
1.49768e-17
-7.70662e-27
-5.31315e-26
1.49768e-17
-7.25647e-27
-5.11505e-26
1.49768e-17
-6.809e-27
-4.91413e-26
1.49768e-17
-6.36537e-27
-4.71104e-26
1.49768e-17
-5.92656e-27
-4.50646e-26
1.49768e-17
-5.49492e-27
-4.30108e-26
1.49768e-17
-5.0736e-27
-4.09512e-26
1.49768e-17
-4.66381e-27
-3.88896e-26
1.49768e-17
-4.26642e-27
-3.68288e-26
1.49768e-17
-3.88144e-27
-3.47735e-26
1.49768e-17
-3.5085e-27
-3.2726e-26
1.49768e-17
-3.14659e-27
-3.0689e-26
1.49768e-17
-2.79492e-27
-2.86601e-26
1.49768e-17
-2.45335e-27
-2.66357e-26
1.49768e-17
-2.12724e-27
-2.46177e-26
1.49768e-17
-1.81684e-27
-2.26091e-26
1.49768e-17
-1.5232e-27
-2.0578e-26
1.49768e-17
-1.25111e-27
-1.85216e-26
1.49768e-17
-1.02576e-27
-1.65509e-26
1.49768e-17
-8.41893e-28
-1.43796e-26
1.49768e-17
-6.77193e-28
-1.18788e-26
1.49768e-17
-7.31414e-28
-1.09043e-26
1.49768e-17
-9.13248e-28
-8.17727e-27
1.49768e-17
-1.12628e-27
-4.462e-27
1.49768e-17
-2.70357e-27
-1.37113e-26
1.49768e-17
-3.06339e-27
7.3158e-27
1.49768e-17
-7.4577e-27
-2.02437e-26
1.49768e-17
-9.14834e-27
-2.05137e-26
-1.03811e-26
2.25489e-26
1.73666e-17
3.43345e-24
5.62899e-23
1.73666e-17
6.24061e-25
-3.07206e-23
1.73666e-17
9.89243e-25
1.33668e-23
1.73666e-17
2.25896e-25
-1.1061e-23
1.73666e-17
4.7534e-25
-1.45159e-24
1.73666e-17
3.87904e-25
-9.26538e-25
1.73666e-17
3.48117e-25
-2.31804e-24
1.73666e-17
3.57524e-25
-6.45998e-25
1.73666e-17
2.62024e-25
-5.6747e-25
1.73666e-17
2.08425e-25
-5.17343e-25
1.73666e-17
1.6929e-25
-2.94599e-25
1.73666e-17
1.26297e-25
-2.23008e-25
1.73666e-17
9.47208e-26
-1.76158e-25
1.73666e-17
7.49214e-26
-1.20855e-25
1.73666e-17
6.24789e-26
-8.47328e-26
1.73666e-17
5.52332e-26
-6.15697e-26
1.73666e-17
5.12799e-26
-4.43138e-26
1.73666e-17
4.886e-26
-3.28605e-26
1.73666e-17
4.68219e-26
-2.63091e-26
1.73666e-17
4.47901e-26
-2.30694e-26
1.73666e-17
4.27319e-26
-2.21556e-26
1.73666e-17
4.02012e-26
-2.2938e-26
1.73666e-17
3.72405e-26
-2.48259e-26
1.73666e-17
3.41789e-26
-2.73799e-26
1.73666e-17
3.09036e-26
-3.03377e-26
1.73666e-17
2.72766e-26
-3.35192e-26
1.73666e-17
2.36883e-26
-3.67651e-26
1.73666e-17
2.0292e-26
-4.0031e-26
1.73666e-17
1.70454e-26
-4.32754e-26
1.73666e-17
1.39579e-26
-4.64125e-26
1.73666e-17
1.10468e-26
-4.94572e-26
1.73666e-17
8.27356e-27
-5.25193e-26
1.73666e-17
5.61951e-27
-5.56934e-26
1.73666e-17
3.06818e-27
-5.87663e-26
1.73666e-17
6.61159e-28
-6.16458e-26
1.73666e-17
-1.31386e-27
-6.43567e-26
1.73666e-17
-3.04132e-27
-6.70673e-26
1.73666e-17
-4.69516e-27
-6.97311e-26
1.73666e-17
-6.24613e-27
-7.21281e-26
1.73666e-17
-7.77126e-27
-7.43672e-26
1.73666e-17
-9.21487e-27
-7.64348e-26
1.73666e-17
-1.0543e-26
-7.83552e-26
1.73666e-17
-1.17522e-26
-8.00622e-26
1.73666e-17
-1.28659e-26
-8.15443e-26
1.73666e-17
-1.38788e-26
-8.28527e-26
1.73666e-17
-1.47676e-26
-8.39922e-26
1.73666e-17
-1.55369e-26
-8.49585e-26
1.73666e-17
-1.62113e-26
-8.57493e-26
1.73666e-17
-1.67882e-26
-8.63622e-26
1.73666e-17
-1.72662e-26
-8.67982e-26
1.73666e-17
-1.76415e-26
-8.7057e-26
1.73666e-17
-1.79251e-26
-8.71398e-26
1.73666e-17
-1.81236e-26
-8.705e-26
1.73666e-17
-1.82452e-26
-8.67904e-26
1.73666e-17
-1.82936e-26
-8.63687e-26
1.73666e-17
-1.82735e-26
-8.57902e-26
1.73666e-17
-1.81897e-26
-8.50511e-26
1.73666e-17
-1.8043e-26
-8.41601e-26
1.73666e-17
-1.78369e-26
-8.31325e-26
1.73666e-17
-1.75791e-26
-8.19774e-26
1.73666e-17
-1.72754e-26
-8.06996e-26
1.73666e-17
-1.69295e-26
-7.93019e-26
1.73666e-17
-1.65466e-26
-7.77924e-26
1.73666e-17
-1.61286e-26
-7.61777e-26
1.73666e-17
-1.56794e-26
-7.44636e-26
1.73666e-17
-1.5203e-26
-7.26583e-26
1.73666e-17
-1.47026e-26
-7.07708e-26
1.73666e-17
-1.41841e-26
-6.8811e-26
1.73666e-17
-1.36497e-26
-6.67851e-26
1.73666e-17
-1.30994e-26
-6.46971e-26
1.73666e-17
-1.25326e-26
-6.25539e-26
1.73666e-17
-1.19567e-26
-6.03638e-26
1.73666e-17
-1.13766e-26
-5.81341e-26
1.73666e-17
-1.07955e-26
-5.58711e-26
1.73666e-17
-1.02143e-26
-5.3581e-26
1.73666e-17
-9.63508e-27
-5.12724e-26
1.73666e-17
-9.06371e-27
-4.89519e-26
1.73666e-17
-8.50563e-27
-4.66215e-26
1.73666e-17
-7.9567e-27
-4.42863e-26
1.73666e-17
-7.41639e-27
-4.19497e-26
1.73666e-17
-6.87617e-27
-3.96168e-26
1.73666e-17
-6.34001e-27
-3.72915e-26
1.73666e-17
-5.81229e-27
-3.49756e-26
1.73666e-17
-5.29678e-27
-3.26673e-26
1.73666e-17
-4.79494e-27
-3.03642e-26
1.73666e-17
-4.30563e-27
-2.80639e-26
1.73666e-17
-3.82968e-27
-2.57697e-26
1.73666e-17
-3.37058e-27
-2.34441e-26
1.73666e-17
-2.93496e-27
-2.10775e-26
1.73666e-17
-2.54456e-27
-1.8819e-26
1.73666e-17
-2.20602e-27
-1.63024e-26
1.73666e-17
-1.92951e-27
-1.32439e-26
1.73666e-17
-1.83613e-27
-1.20736e-26
1.73666e-17
-1.93284e-27
-8.79114e-27
1.73666e-17
-2.27212e-27
-3.1522e-27
1.73666e-17
-3.43274e-27
-1.38941e-26
1.73666e-17
-4.04297e-27
9.33006e-27
1.73666e-17
-7.95341e-27
-1.69056e-26
1.73666e-17
-8.62149e-27
-1.34385e-26
-9.25907e-27
1.78512e-26
1.88195e-17
1.75252e-24
5.97666e-23
1.88195e-17
4.70185e-25
-3.42802e-23
1.88195e-17
5.75284e-25
1.20657e-23
1.88195e-17
1.22691e-25
-1.15755e-23
1.88195e-17
1.67675e-25
-1.67783e-24
1.88195e-17
1.47155e-25
-1.42476e-24
1.88195e-17
1.31549e-25
-2.54265e-24
1.88195e-17
1.11787e-25
-7.34663e-25
1.88195e-17
6.49979e-26
-6.99581e-25
1.88195e-17
5.00201e-26
-6.05029e-25
1.88195e-17
3.77582e-26
-3.46502e-25
1.88195e-17
2.54595e-26
-2.6643e-25
1.88195e-17
1.95716e-26
-2.08682e-25
1.88195e-17
1.85506e-26
-1.43068e-25
1.88195e-17
1.98775e-26
-1.01165e-25
1.88195e-17
2.24731e-26
-7.38712e-26
1.88195e-17
2.5314e-26
-5.32587e-26
1.88195e-17
2.75586e-26
-3.96243e-26
1.88195e-17
2.87921e-26
-3.18383e-26
1.88195e-17
2.89822e-26
-2.77508e-26
1.88195e-17
2.85088e-26
-2.61919e-26
1.88195e-17
2.72283e-26
-2.65308e-26
1.88195e-17
2.5272e-26
-2.81759e-26
1.88195e-17
2.30067e-26
-3.06503e-26
1.88195e-17
2.03789e-26
-3.36459e-26
1.88195e-17
1.7467e-26
-3.69235e-26
1.88195e-17
1.46237e-26
-4.03474e-26
1.88195e-17
1.18375e-26
-4.38736e-26
1.88195e-17
9.11141e-27
-4.74002e-26
1.88195e-17
6.50445e-27
-5.08614e-26
1.88195e-17
4.04633e-27
-5.42859e-26
1.88195e-17
1.71152e-27
-5.76984e-26
1.88195e-17
-5.43962e-28
-6.10533e-26
1.88195e-17
-2.73314e-27
-6.42596e-26
1.88195e-17
-4.79107e-27
-6.72507e-26
1.88195e-17
-6.4828e-27
-7.00985e-26
1.88195e-17
-8.11228e-27
-7.28316e-26
1.88195e-17
-9.69792e-27
-7.55089e-26
1.88195e-17
-1.12401e-26
-7.80411e-26
1.88195e-17
-1.26898e-26
-8.04095e-26
1.88195e-17
-1.40481e-26
-8.26613e-26
1.88195e-17
-1.53027e-26
-8.46972e-26
1.88195e-17
-1.64617e-26
-8.65051e-26
1.88195e-17
-1.75416e-26
-8.81245e-26
1.88195e-17
-1.85332e-26
-8.95675e-26
1.88195e-17
-1.94016e-26
-9.08251e-26
1.88195e-17
-2.01492e-26
-9.18886e-26
1.88195e-17
-2.08056e-26
-9.27644e-26
1.88195e-17
-2.1374e-26
-9.34537e-26
1.88195e-17
-2.18534e-26
-9.39548e-26
1.88195e-17
-2.22436e-26
-9.42662e-26
1.88195e-17
-2.25437e-26
-9.43862e-26
1.88195e-17
-2.2756e-26
-9.43184e-26
1.88195e-17
-2.28918e-26
-9.40661e-26
1.88195e-17
-2.29557e-26
-9.36313e-26
1.88195e-17
-2.29509e-26
-9.30192e-26
1.88195e-17
-2.28806e-26
-9.22381e-26
1.88195e-17
-2.27464e-26
-9.12999e-26
1.88195e-17
-2.25505e-26
-9.0213e-26
1.88195e-17
-2.22982e-26
-8.8982e-26
1.88195e-17
-2.19939e-26
-8.76097e-26
1.88195e-17
-2.1641e-26
-8.61073e-26
1.88195e-17
-2.12433e-26
-8.44888e-26
1.88195e-17
-2.08049e-26
-8.27527e-26
1.88195e-17
-2.03304e-26
-8.09028e-26
1.88195e-17
-1.98228e-26
-7.89538e-26
1.88195e-17
-1.92865e-26
-7.69182e-26
1.88195e-17
-1.87244e-26
-7.48014e-26
1.88195e-17
-1.81385e-26
-7.26089e-26
1.88195e-17
-1.75282e-26
-7.03512e-26
1.88195e-17
-1.68948e-26
-6.80338e-26
1.88195e-17
-1.62455e-26
-6.56644e-26
1.88195e-17
-1.55851e-26
-6.32512e-26
1.88195e-17
-1.49165e-26
-6.08025e-26
1.88195e-17
-1.42425e-26
-5.83264e-26
1.88195e-17
-1.35649e-26
-5.5831e-26
1.88195e-17
-1.28881e-26
-5.33191e-26
1.88195e-17
-1.22187e-26
-5.07976e-26
1.88195e-17
-1.15519e-26
-4.82701e-26
1.88195e-17
-1.08852e-26
-4.57422e-26
1.88195e-17
-1.0209e-26
-4.32127e-26
1.88195e-17
-9.52864e-27
-4.06878e-26
1.88195e-17
-8.85239e-27
-3.8173e-26
1.88195e-17
-8.18324e-27
-3.56667e-26
1.88195e-17
-7.52179e-27
-3.31629e-26
1.88195e-17
-6.86595e-27
-3.06601e-26
1.88195e-17
-6.21597e-27
-2.81642e-26
1.88195e-17
-5.57352e-27
-2.56361e-26
1.88195e-17
-4.94344e-27
-2.30566e-26
1.88195e-17
-4.33901e-27
-2.06007e-26
1.88195e-17
-3.77353e-27
-1.79036e-26
1.88195e-17
-3.25735e-27
-1.46392e-26
1.88195e-17
-2.84351e-27
-1.33054e-26
1.88195e-17
-2.57116e-27
-9.95871e-27
1.88195e-17
-2.53504e-27
-3.99401e-27
1.88195e-17
-2.8989e-27
-1.45814e-26
1.88195e-17
-2.84302e-27
9.7103e-27
1.88195e-17
-4.85076e-27
-2.3091e-26
1.88195e-17
-5.18201e-27
-1.2515e-26
-5.3392e-27
1.68311e-26
1.95097e-17
-8.20157e-26
6.08918e-23
1.95097e-17
-1.15532e-25
-3.52204e-23
1.95097e-17
-8.43509e-26
1.32086e-23
1.95097e-17
-1.12303e-25
-1.1663e-23
1.95097e-17
-1.31442e-25
-2.02353e-24
1.95097e-17
-1.43513e-25
-1.48358e-24
1.95097e-17
-1.60576e-25
-2.54493e-24
1.95097e-17
-1.67982e-25
-7.79996e-25
1.95097e-17
-1.59726e-25
-7.5493e-25
1.95097e-17
-1.4425e-25
-6.31491e-25
1.95097e-17
-1.23166e-25
-3.61249e-25
1.95097e-17
-9.87587e-26
-2.81382e-25
1.95097e-17
-7.45371e-26
-2.19074e-25
1.95097e-17
-5.26276e-26
-1.49637e-25
1.95097e-17
-3.41302e-26
-1.05901e-25
1.95097e-17
-1.93369e-26
-7.73879e-26
1.95097e-17
-8.08303e-27
-5.59305e-26
1.95097e-17
-5.27435e-30
-4.17327e-26
1.95097e-17
5.39939e-27
-3.35069e-26
1.95097e-17
8.64234e-27
-2.90688e-26
1.95097e-17
1.01653e-26
-2.73515e-26
1.95097e-17
1.03867e-26
-2.76257e-26
1.95097e-17
9.70792e-27
-2.92435e-26
1.95097e-17
8.40533e-27
-3.17613e-26
1.95097e-17
6.77843e-27
-3.48872e-26
1.95097e-17
5.0614e-27
-3.83459e-26
1.95097e-17
3.20268e-27
-4.19174e-26
1.95097e-17
1.30021e-27
-4.55391e-26
1.95097e-17
-6.21946e-28
-4.91692e-26
1.95097e-17
-2.50381e-27
-5.27541e-26
1.95097e-17
-4.33084e-27
-5.63416e-26
1.95097e-17
-6.08565e-27
-5.98767e-26
1.95097e-17
-7.76672e-27
-6.32968e-26
1.95097e-17
-9.35799e-27
-6.64918e-26
1.95097e-17
-1.08945e-26
-6.95132e-26
1.95097e-17
-1.24622e-26
-7.24191e-26
1.95097e-17
-1.39834e-26
-7.52953e-26
1.95097e-17
-1.53388e-26
-7.79974e-26
1.95097e-17
-1.66633e-26
-8.05487e-26
1.95097e-17
-1.79125e-26
-8.289e-26
1.95097e-17
-1.9063e-26
-8.50249e-26
1.95097e-17
-2.01339e-26
-8.7001e-26
1.95097e-17
-2.11341e-26
-8.88339e-26
1.95097e-17
-2.20932e-26
-9.04806e-26
1.95097e-17
-2.298e-26
-9.19479e-26
1.95097e-17
-2.37634e-26
-9.32361e-26
1.95097e-17
-2.44455e-26
-9.43387e-26
1.95097e-17
-2.50358e-26
-9.52514e-26
1.95097e-17
-2.55503e-26
-9.5974e-26
1.95097e-17
-2.59922e-26
-9.65063e-26
1.95097e-17
-2.6372e-26
-9.68676e-26
1.95097e-17
-2.66722e-26
-9.70335e-26
1.95097e-17
-2.68844e-26
-9.70018e-26
1.95097e-17
-2.70277e-26
-9.67761e-26
1.95097e-17
-2.71047e-26
-9.63585e-26
1.95097e-17
-2.71154e-26
-9.57518e-26
1.95097e-17
-2.70627e-26
-9.49695e-26
1.95097e-17
-2.69495e-26
-9.40247e-26
1.95097e-17
-2.67749e-26
-9.29262e-26
1.95097e-17
-2.65392e-26
-9.1675e-26
1.95097e-17
-2.62467e-26
-9.02775e-26
1.95097e-17
-2.59017e-26
-8.87418e-26
1.95097e-17
-2.55069e-26
-8.70766e-26
1.95097e-17
-2.50666e-26
-8.52906e-26
1.95097e-17
-2.45839e-26
-8.33909e-26
1.95097e-17
-2.40631e-26
-8.13876e-26
1.95097e-17
-2.35079e-26
-7.92953e-26
1.95097e-17
-2.292e-26
-7.7119e-26
1.95097e-17
-2.23018e-26
-7.48611e-26
1.95097e-17
-2.16524e-26
-7.25358e-26
1.95097e-17
-2.09757e-26
-7.01594e-26
1.95097e-17
-2.02779e-26
-6.77291e-26
1.95097e-17
-1.95619e-26
-6.52531e-26
1.95097e-17
-1.88308e-26
-6.2739e-26
1.95097e-17
-1.80877e-26
-6.01972e-26
1.95097e-17
-1.73339e-26
-5.76358e-26
1.95097e-17
-1.65701e-26
-5.5057e-26
1.95097e-17
-1.58e-26
-5.24645e-26
1.95097e-17
-1.50233e-26
-4.98643e-26
1.95097e-17
-1.42388e-26
-4.72629e-26
1.95097e-17
-1.34451e-26
-4.46607e-26
1.95097e-17
-1.26452e-26
-4.20606e-26
1.95097e-17
-1.18423e-26
-3.94706e-26
1.95097e-17
-1.10385e-26
-3.68841e-26
1.95097e-17
-1.02326e-26
-3.42979e-26
1.95097e-17
-9.42123e-27
-3.17132e-26
1.95097e-17
-8.60345e-27
-2.91375e-26
1.95097e-17
-7.78062e-27
-2.65282e-26
1.95097e-17
-6.95789e-27
-2.38569e-26
1.95097e-17
-6.14237e-27
-2.12935e-26
1.95097e-17
-5.34662e-27
-1.84844e-26
1.95097e-17
-4.58311e-27
-1.50642e-26
1.95097e-17
-3.87413e-27
-1.35025e-26
1.95097e-17
-3.22065e-27
-9.7146e-27
1.95097e-17
-2.60791e-27
-3.58162e-27
1.95097e-17
-2.07607e-27
-1.41542e-26
1.95097e-17
-1.58045e-27
1.28299e-26
1.95097e-17
-1.05407e-27
-2.21143e-26
1.95097e-17
-7.87598e-28
-9.86784e-27
-7.97579e-29
1.59811e-26
1.95097e-17
-1.91745e-24
6.09678e-23
1.95097e-17
-7.50507e-25
-3.51829e-23
1.95097e-17
-7.78566e-25
1.33201e-23
1.95097e-17
-3.18646e-25
-1.16237e-23
1.95097e-17
-3.9513e-25
-1.9973e-24
1.95097e-17
-4.16911e-25
-1.44469e-24
1.95097e-17
-4.28652e-25
-2.52578e-24
1.95097e-17
-4.25069e-25
-7.7045e-25
1.95097e-17
-3.65955e-25
-7.47219e-25
1.95097e-17
-3.23503e-25
-6.25049e-25
1.95097e-17
-2.71372e-25
-3.56202e-25
1.95097e-17
-2.12349e-25
-2.77773e-25
1.95097e-17
-1.60027e-25
-2.1645e-25
1.95097e-17
-1.16993e-25
-1.4756e-25
1.95097e-17
-8.28403e-26
-1.04179e-25
1.95097e-17
-5.71004e-26
-7.613e-26
1.95097e-17
-3.84401e-26
-5.51534e-26
1.95097e-17
-2.53106e-26
-4.12736e-26
1.95097e-17
-1.63021e-26
-3.31769e-26
1.95097e-17
-1.05297e-26
-2.86859e-26
1.95097e-17
-7.33606e-27
-2.69819e-26
1.95097e-17
-5.80615e-27
-2.7202e-26
1.95097e-17
-5.30553e-27
-2.87541e-26
1.95097e-17
-5.62128e-27
-3.11792e-26
1.95097e-17
-6.26627e-27
-3.41657e-26
1.95097e-17
-6.85904e-27
-3.75146e-26
1.95097e-17
-7.59592e-27
-4.09278e-26
1.95097e-17
-8.45784e-27
-4.44043e-26
1.95097e-17
-9.43081e-27
-4.79857e-26
1.95097e-17
-1.04579e-26
-5.1472e-26
1.95097e-17
-1.15366e-26
-5.49325e-26
1.95097e-17
-1.2631e-26
-5.83073e-26
1.95097e-17
-1.36694e-26
-6.1576e-26
1.95097e-17
-1.46038e-26
-6.47329e-26
1.95097e-17
-1.54831e-26
-6.77146e-26
1.95097e-17
-1.66703e-26
-7.05455e-26
1.95097e-17
-1.78529e-26
-7.33025e-26
1.95097e-17
-1.90189e-26
-7.59667e-26
1.95097e-17
-2.02003e-26
-7.8511e-26
1.95097e-17
-2.13132e-26
-8.08745e-26
1.95097e-17
-2.22575e-26
-8.30444e-26
1.95097e-17
-2.31278e-26
-8.50505e-26
1.95097e-17
-2.39308e-26
-8.69047e-26
1.95097e-17
-2.47012e-26
-8.85743e-26
1.95097e-17
-2.54071e-26
-9.00542e-26
1.95097e-17
-2.60328e-26
-9.13568e-26
1.95097e-17
-2.65851e-26
-9.24808e-26
1.95097e-17
-2.70705e-26
-9.34198e-26
1.95097e-17
-2.75034e-26
-9.41678e-26
1.95097e-17
-2.78879e-26
-9.4724e-26
1.95097e-17
-2.8227e-26
-9.50877e-26
1.95097e-17
-2.85088e-26
-9.52607e-26
1.95097e-17
-2.87244e-26
-9.52522e-26
1.95097e-17
-2.88826e-26
-9.50495e-26
1.95097e-17
-2.89806e-26
-9.46548e-26
1.95097e-17
-2.90157e-26
-9.40738e-26
1.95097e-17
-2.899e-26
-9.33162e-26
1.95097e-17
-2.89087e-26
-9.23938e-26
1.95097e-17
-2.87733e-26
-9.13178e-26
1.95097e-17
-2.85795e-26
-9.00912e-26
1.95097e-17
-2.83272e-26
-8.87207e-26
1.95097e-17
-2.80201e-26
-8.72147e-26
1.95097e-17
-2.76617e-26
-8.55802e-26
1.95097e-17
-2.72546e-26
-8.38261e-26
1.95097e-17
-2.68017e-26
-8.19585e-26
1.95097e-17
-2.63072e-26
-7.99866e-26
1.95097e-17
-2.57739e-26
-7.79249e-26
1.95097e-17
-2.5204e-26
-7.57842e-26
1.95097e-17
-2.46003e-26
-7.35677e-26
1.95097e-17
-2.39658e-26
-7.12829e-26
1.95097e-17
-2.33037e-26
-6.89444e-26
1.95097e-17
-2.26175e-26
-6.65532e-26
1.95097e-17
-2.1908e-26
-6.41173e-26
1.95097e-17
-2.11773e-26
-6.16434e-26
1.95097e-17
-2.04282e-26
-5.91412e-26
1.95097e-17
-1.96639e-26
-5.66198e-26
1.95097e-17
-1.88826e-26
-5.40831e-26
1.95097e-17
-1.8086e-26
-5.15329e-26
1.95097e-17
-1.72741e-26
-4.89765e-26
1.95097e-17
-1.6448e-26
-4.64173e-26
1.95097e-17
-1.56084e-26
-4.3859e-26
1.95097e-17
-1.47569e-26
-4.13041e-26
1.95097e-17
-1.38944e-26
-3.87564e-26
1.95097e-17
-1.30226e-26
-3.62119e-26
1.95097e-17
-1.21376e-26
-3.36666e-26
1.95097e-17
-1.12364e-26
-3.11239e-26
1.95097e-17
-1.03165e-26
-2.85918e-26
1.95097e-17
-9.37801e-27
-2.60261e-26
1.95097e-17
-8.42559e-27
-2.34027e-26
1.95097e-17
-7.46197e-27
-2.08819e-26
1.95097e-17
-6.49517e-27
-1.81166e-26
1.95097e-17
-5.54556e-27
-1.47404e-26
1.95097e-17
-4.57954e-27
-1.32061e-26
1.95097e-17
-3.60725e-27
-9.42209e-27
1.95097e-17
-2.50677e-27
-3.31323e-27
1.95097e-17
-1.03072e-27
-1.39951e-26
1.95097e-17
-1.03554e-28
1.30744e-26
1.95097e-17
2.81665e-27
-2.15659e-26
1.95097e-17
3.65737e-27
-1.04756e-26
5.25929e-27
1.67053e-26
1.88195e-17
-3.69052e-24
5.98709e-23
1.88195e-17
-7.40038e-25
-3.42319e-23
1.88195e-17
-1.12176e-24
1.22566e-23
1.88195e-17
-3.40582e-25
-1.14154e-23
1.88195e-17
-5.81872e-25
-1.59315e-24
1.88195e-17
-5.59248e-25
-1.33741e-24
1.88195e-17
-5.52661e-25
-2.49193e-24
1.88195e-17
-5.90971e-25
-7.05227e-25
1.88195e-17
-5.02415e-25
-6.78312e-25
1.88195e-17
-4.31549e-25
-5.86953e-25
1.88195e-17
-3.6121e-25
-3.30522e-25
1.88195e-17
-2.79334e-25
-2.5514e-25
1.88195e-17
-2.08454e-25
-2.00901e-25
1.88195e-17
-1.52649e-25
-1.37056e-25
1.88195e-17
-1.0958e-25
-9.61872e-26
1.88195e-17
-7.79285e-26
-7.02813e-26
1.88195e-17
-5.55813e-26
-5.10763e-26
1.88195e-17
-4.01575e-26
-3.83799e-26
1.88195e-17
-2.95403e-26
-3.09221e-26
1.88195e-17
-2.28403e-26
-2.67353e-26
1.88195e-17
-1.89409e-26
-2.50307e-26
1.88195e-17
-1.67037e-26
-2.51207e-26
1.88195e-17
-1.55415e-26
-2.65697e-26
1.88195e-17
-1.52069e-26
-2.87685e-26
1.88195e-17
-1.52622e-26
-3.14475e-26
1.88195e-17
-1.52442e-26
-3.44205e-26
1.88195e-17
-1.5183e-26
-3.75143e-26
1.88195e-17
-1.5216e-26
-4.07392e-26
1.88195e-17
-1.52989e-26
-4.40591e-26
1.88195e-17
-1.54481e-26
-4.7273e-26
1.88195e-17
-1.56848e-26
-5.03821e-26
1.88195e-17
-1.59989e-26
-5.34824e-26
1.88195e-17
-1.63247e-26
-5.65187e-26
1.88195e-17
-1.66221e-26
-5.9457e-26
1.88195e-17
-1.68172e-26
-6.22072e-26
1.88195e-17
-1.7234e-26
-6.48774e-26
1.88195e-17
-1.78603e-26
-6.74827e-26
1.88195e-17
-1.87514e-26
-7.00336e-26
1.88195e-17
-1.96897e-26
-7.24503e-26
1.88195e-17
-2.06065e-26
-7.4702e-26
1.88195e-17
-2.14207e-26
-7.67899e-26
1.88195e-17
-2.21763e-26
-7.87238e-26
1.88195e-17
-2.28147e-26
-8.05049e-26
1.88195e-17
-2.33978e-26
-8.21272e-26
1.88195e-17
-2.39346e-26
-8.35819e-26
1.88195e-17
-2.44278e-26
-8.48656e-26
1.88195e-17
-2.48824e-26
-8.59712e-26
1.88195e-17
-2.53014e-26
-8.68937e-26
1.88195e-17
-2.56855e-26
-8.76314e-26
1.88195e-17
-2.60371e-26
-8.8183e-26
1.88195e-17
-2.63591e-26
-8.85484e-26
1.88195e-17
-2.66438e-26
-8.87289e-26
1.88195e-17
-2.68856e-26
-8.87267e-26
1.88195e-17
-2.70795e-26
-8.8543e-26
1.88195e-17
-2.72234e-26
-8.81816e-26
1.88195e-17
-2.73141e-26
-8.76504e-26
1.88195e-17
-2.73509e-26
-8.69548e-26
1.88195e-17
-2.73348e-26
-8.61005e-26
1.88195e-17
-2.72688e-26
-8.50962e-26
1.88195e-17
-2.71529e-26
-8.39551e-26
1.88195e-17
-2.69848e-26
-8.26812e-26
1.88195e-17
-2.67621e-26
-8.12828e-26
1.88195e-17
-2.64901e-26
-7.97673e-26
1.88195e-17
-2.61711e-26
-7.81396e-26
1.88195e-17
-2.58076e-26
-7.6408e-26
1.88195e-17
-2.53998e-26
-7.45841e-26
1.88195e-17
-2.49524e-26
-7.26719e-26
1.88195e-17
-2.44693e-26
-7.0679e-26
1.88195e-17
-2.39523e-26
-6.86152e-26
1.88195e-17
-2.34033e-26
-6.64871e-26
1.88195e-17
-2.28274e-26
-6.43019e-26
1.88195e-17
-2.22246e-26
-6.20673e-26
1.88195e-17
-2.15964e-26
-5.97899e-26
1.88195e-17
-2.09425e-26
-5.74773e-26
1.88195e-17
-2.02651e-26
-5.51354e-26
1.88195e-17
-1.95662e-26
-5.27733e-26
1.88195e-17
-1.88494e-26