/*--------------------------------*- C++ -*----------------------------------*\
| =========                 |                                                 |
| \\      /  F ield         | OpenFOAM: The Open Source CFD Toolbox           |
|  \\    /   O peration     | Version:  2412                                  |
|   \\  /    A nd           | Website:  www.openfoam.com                      |
|    \\/     M anipulation  |                                                 |
\*---------------------------------------------------------------------------*/
FoamFile
{
    version     2.0;
    format      ascii;
    arch        "LSB;label=32;scalar=64";
    class       volVectorField;
    location    "0.00015";
    object      U;
}
// * * * * * * * * * * * * * * * * * * * * * * * * * * * * * * * * * * * * * //

dimensions      [0 1 -1 0 0 0 0];

internalField   nonuniform List<vector> 
14400
(
(5.48561e-06 3.22476e-12 3.32785e-12)
(5.4856e-06 -1.7442e-12 -1.83629e-12)
(5.48561e-06 4.1938e-13 3.5384e-13)
(5.48561e-06 -5.63184e-13 -6.44239e-13)
(5.48561e-06 -1.19942e-13 -1.69444e-13)
(5.48561e-06 -8.45981e-14 -1.23366e-13)
(5.48561e-06 -1.64931e-13 -1.931e-13)
(5.48561e-06 -5.0392e-14 -7.22286e-14)
(5.48561e-06 -5.06222e-14 -6.58522e-14)
(5.48561e-06 -4.76977e-14 -5.89841e-14)
(5.48561e-06 -3.00702e-14 -3.85695e-14)
(5.48561e-06 -2.21969e-14 -2.82851e-14)
(5.48561e-06 -1.61961e-14 -2.07692e-14)
(5.48561e-06 -1.03688e-14 -1.39265e-14)
(5.48561e-06 -5.90029e-15 -8.76229e-15)
(5.48561e-06 -2.65833e-15 -5.07288e-15)
(5.48561e-06 -4.71005e-16 -2.59441e-15)
(5.48561e-06 7.4476e-16 -1.16822e-15)
(5.48561e-06 1.23198e-15 -5.20283e-16)
(5.48561e-06 1.30648e-15 -3.44397e-16)
(5.48561e-06 1.09853e-15 -4.83754e-16)
(5.48561e-06 7.34148e-16 -8.03816e-16)
(5.48561e-06 3.04787e-16 -1.21962e-15)
(5.48561e-06 -2.05445e-16 -1.72475e-15)
(5.48561e-06 -7.54299e-16 -2.28322e-15)
(5.48561e-06 -1.32299e-15 -2.87129e-15)
(5.48561e-06 -1.92017e-15 -3.48393e-15)
(5.48561e-06 -2.55616e-15 -4.1125e-15)
(5.48561e-06 -3.21761e-15 -4.76815e-15)
(5.48561e-06 -3.90483e-15 -5.42328e-15)
(5.48561e-06 -4.74828e-15 -6.09216e-15)
(5.48561e-06 -5.56731e-15 -6.86582e-15)
(5.48561e-06 -6.24756e-15 -7.60899e-15)
(5.48561e-06 -6.73221e-15 -8.31544e-15)
(5.48561e-06 -7.22175e-15 -8.94521e-15)
(5.48561e-06 -7.73573e-15 -9.46444e-15)
(5.48561e-06 -8.12601e-15 -9.87444e-15)
(5.48561e-06 -8.32573e-15 -1.00717e-14)
(5.48561e-06 -8.41117e-15 -1.02474e-14)
(5.48561e-06 -8.47664e-15 -1.03766e-14)
(5.48561e-06 -8.56385e-15 -1.04436e-14)
(5.48561e-06 -8.78257e-15 -1.05616e-14)
(5.48561e-06 -9.01801e-15 -1.07677e-14)
(5.48561e-06 -9.25008e-15 -1.09804e-14)
(5.48561e-06 -9.4689e-15 -1.11789e-14)
(5.48561e-06 -9.67166e-15 -1.13577e-14)
(5.48561e-06 -9.85714e-15 -1.15145e-14)
(5.48561e-06 -1.00247e-14 -1.16483e-14)
(5.48561e-06 -1.01724e-14 -1.17589e-14)
(5.48561e-06 -1.02993e-14 -1.18457e-14)
(5.48561e-06 -1.04048e-14 -1.19092e-14)
(5.48561e-06 -1.04886e-14 -1.19506e-14)
(5.48561e-06 -1.05504e-14 -1.19708e-14)
(5.48561e-06 -1.05906e-14 -1.19699e-14)
(5.48561e-06 -1.061e-14 -1.19471e-14)
(5.48561e-06 -1.06087e-14 -1.19024e-14)
(5.48561e-06 -1.05882e-14 -1.18359e-14)
(5.48561e-06 -1.05487e-14 -1.17468e-14)
(5.48561e-06 -1.04866e-14 -1.16333e-14)
(5.48561e-06 -1.04037e-14 -1.14962e-14)
(5.48561e-06 -1.02982e-14 -1.13392e-14)
(5.48561e-06 -1.0174e-14 -1.11671e-14)
(5.48561e-06 -1.00331e-14 -1.09811e-14)
(5.48561e-06 -9.87658e-15 -1.07809e-14)
(5.48561e-06 -9.70508e-15 -1.05668e-14)
(5.48561e-06 -9.51985e-15 -1.03396e-14)
(5.48561e-06 -9.32206e-15 -1.00995e-14)
(5.48561e-06 -9.11156e-15 -9.84712e-15)
(5.48561e-06 -8.88825e-15 -9.58375e-15)
(5.48561e-06 -8.65338e-15 -9.31042e-15)
(5.48561e-06 -8.40864e-15 -9.02822e-15)
(5.48561e-06 -8.15494e-15 -8.73831e-15)
(5.48561e-06 -7.89279e-15 -8.44108e-15)
(5.48561e-06 -7.62311e-15 -8.13753e-15)
(5.48561e-06 -7.34718e-15 -7.82812e-15)
(5.48561e-06 -7.06541e-15 -7.5128e-15)
(5.48561e-06 -6.77736e-15 -7.19237e-15)
(5.48561e-06 -6.48338e-15 -6.8682e-15)
(5.48561e-06 -6.18551e-15 -6.54122e-15)
(5.48561e-06 -5.88519e-15 -6.21266e-15)
(5.48561e-06 -5.58279e-15 -5.88303e-15)
(5.48561e-06 -5.27837e-15 -5.55276e-15)
(5.48561e-06 -4.97209e-15 -5.22197e-15)
(5.48561e-06 -4.66371e-15 -4.8902e-15)
(5.48561e-06 -4.3516e-15 -4.55656e-15)
(5.48561e-06 -4.02957e-15 -4.22121e-15)
(5.48561e-06 -3.70289e-15 -3.8792e-15)
(5.48561e-06 -3.37218e-15 -3.53118e-15)
(5.48561e-06 -3.03507e-15 -3.17691e-15)
(5.48561e-06 -2.69655e-15 -2.82225e-15)
(5.48561e-06 -2.35041e-15 -2.46072e-15)
(5.48561e-06 -1.98385e-15 -2.07779e-15)
(5.48561e-06 -1.65433e-15 -1.73709e-15)
(5.48561e-06 -1.27322e-15 -1.35455e-15)
(5.48561e-06 -6.61422e-16 -7.28778e-16)
(5.48561e-06 -8.98919e-16 -1.01886e-15)
(5.48561e-06 8.91778e-17 -3.67891e-17)
(5.48561e-06 -9.45173e-16 -1.06683e-15)
(5.48561e-06 -1.55613e-15 -1.59133e-15)
(5.48561e-06 9.86279e-16 9.61024e-16)
(1.15068e-05 6.87818e-12 2.26018e-11)
(1.15068e-05 -2.17068e-12 -1.02285e-11)
(1.15068e-05 1.66787e-12 1.9667e-12)
(1.15068e-05 -7.96393e-13 -3.32195e-12)
(1.15068e-05 9.02521e-14 -1.22717e-12)
(1.15068e-05 2.51278e-13 -8.06792e-13)
(1.15068e-05 5.41548e-14 -1.01335e-12)
(1.15068e-05 2.33848e-13 -5.19144e-13)
(1.15068e-05 1.88436e-13 -4.06511e-13)
(1.15068e-05 1.27066e-13 -3.24759e-13)
(1.15068e-05 1.09341e-13 -2.182e-13)
(1.15068e-05 8.10917e-14 -1.61109e-13)
(1.15068e-05 5.84987e-14 -1.21138e-13)
(1.15068e-05 4.56749e-14 -8.85279e-14)
(1.15068e-05 3.78266e-14 -6.66706e-14)
(1.15068e-05 3.31774e-14 -5.22617e-14)
(1.15068e-05 3.0542e-14 -4.25587e-14)
(1.15068e-05 2.86444e-14 -3.64804e-14)
(1.15068e-05 2.68929e-14 -3.29862e-14)
(1.15068e-05 2.52831e-14 -3.11675e-14)
(1.15068e-05 2.36432e-14 -3.04018e-14)
(1.15068e-05 2.19766e-14 -3.02879e-14)
(1.15068e-05 2.0303e-14 -3.05824e-14)
(1.15068e-05 1.85461e-14 -3.11269e-14)
(1.15068e-05 1.67653e-14 -3.18046e-14)
(1.15068e-05 1.49557e-14 -3.25812e-14)
(1.15068e-05 1.30772e-14 -3.34715e-14)
(1.15068e-05 1.10365e-14 -3.43082e-14)
(1.15068e-05 8.95999e-15 -3.51135e-14)
(1.15068e-05 6.95763e-15 -3.59503e-14)
(1.15068e-05 5.10139e-15 -3.68485e-14)
(1.15068e-05 3.47389e-15 -3.7922e-14)
(1.15068e-05 2.04124e-15 -3.90285e-14)
(1.15068e-05 7.01641e-16 -4.01844e-14)
(1.15068e-05 -5.9421e-16 -4.13051e-14)
(1.15068e-05 -1.83715e-15 -4.22189e-14)
(1.15068e-05 -3.0271e-15 -4.27535e-14)
(1.15068e-05 -4.05573e-15 -4.35024e-14)
(1.15068e-05 -4.94644e-15 -4.43992e-14)
(1.15068e-05 -5.72333e-15 -4.51804e-14)
(1.15068e-05 -6.41127e-15 -4.5712e-14)
(1.15068e-05 -7.05968e-15 -4.60717e-14)
(1.15068e-05 -7.68333e-15 -4.64457e-14)
(1.15068e-05 -8.27275e-15 -4.68348e-14)
(1.15068e-05 -8.81835e-15 -4.71597e-14)
(1.15068e-05 -9.31818e-15 -4.74087e-14)
(1.15068e-05 -9.77211e-15 -4.7577e-14)
(1.15068e-05 -1.0181e-14 -4.76637e-14)
(1.15068e-05 -1.05446e-14 -4.76677e-14)
(1.15068e-05 -1.08614e-14 -4.75889e-14)
(1.15068e-05 -1.11307e-14 -4.74295e-14)
(1.15068e-05 -1.13537e-14 -4.71936e-14)
(1.15068e-05 -1.15326e-14 -4.68844e-14)
(1.15068e-05 -1.16697e-14 -4.65043e-14)
(1.15068e-05 -1.17681e-14 -4.60535e-14)
(1.15068e-05 -1.18295e-14 -4.55338e-14)
(1.15068e-05 -1.18556e-14 -4.49477e-14)
(1.15068e-05 -1.18443e-14 -4.42981e-14)
(1.15068e-05 -1.17731e-14 -4.3589e-14)
(1.15068e-05 -1.16679e-14 -4.28239e-14)
(1.15068e-05 -1.15329e-14 -4.20084e-14)
(1.15068e-05 -1.13725e-14 -4.11489e-14)
(1.15068e-05 -1.1189e-14 -4.02466e-14)
(1.15068e-05 -1.09848e-14 -3.93032e-14)
(1.15068e-05 -1.07613e-14 -3.83209e-14)
(1.15068e-05 -1.05203e-14 -3.73028e-14)
(1.15068e-05 -1.0263e-14 -3.62519e-14)
(1.15068e-05 -9.98945e-15 -3.51724e-14)
(1.15068e-05 -9.70145e-15 -3.40681e-14)
(1.15068e-05 -9.40063e-15 -3.29422e-14)
(1.15068e-05 -9.08922e-15 -3.17967e-14)
(1.15068e-05 -8.7688e-15 -3.06352e-14)
(1.15068e-05 -8.44071e-15 -2.94602e-14)
(1.15068e-05 -8.10638e-15 -2.82743e-14)
(1.15068e-05 -7.76755e-15 -2.70792e-14)
(1.15068e-05 -7.42464e-15 -2.58776e-14)
(1.15068e-05 -7.0774e-15 -2.46729e-14)
(1.15068e-05 -6.7273e-15 -2.34686e-14)
(1.15068e-05 -6.37671e-15 -2.22659e-14)
(1.15068e-05 -6.02701e-15 -2.10674e-14)
(1.15068e-05 -5.67883e-15 -1.98745e-14)
(1.15068e-05 -5.33204e-15 -1.86896e-14)
(1.15068e-05 -4.98644e-15 -1.75128e-14)
(1.15068e-05 -4.64086e-15 -1.63443e-14)
(1.15068e-05 -4.29316e-15 -1.51836e-14)
(1.15068e-05 -3.93987e-15 -1.40338e-14)
(1.15068e-05 -3.58642e-15 -1.28882e-14)
(1.15068e-05 -3.23268e-15 -1.17343e-14)
(1.15068e-05 -2.87784e-15 -1.05653e-14)
(1.15068e-05 -2.53678e-15 -9.41115e-15)
(1.15068e-05 -2.18419e-15 -8.19983e-15)
(1.15068e-05 -1.79848e-15 -6.94697e-15)
(1.15068e-05 -1.59798e-15 -6.02859e-15)
(1.15068e-05 -1.32593e-15 -4.58959e-15)
(1.15068e-05 -9.57164e-16 -2.57426e-15)
(1.15068e-05 -2.66208e-15 -4.6005e-15)
(1.15068e-05 -1.74251e-15 2.32056e-15)
(1.15068e-05 -6.74353e-15 -4.26955e-15)
(1.15068e-05 -8.93535e-15 -3.62394e-15)
(1.15068e-05 -3.84773e-15 1.50174e-14)
(1.52809e-05 6.08404e-12 2.78768e-11)
(1.52809e-05 6.48433e-14 -1.83186e-11)
(1.52809e-05 2.22155e-12 5.60564e-12)
(1.52809e-05 1.82139e-13 -5.20397e-12)
(1.52809e-05 9.98901e-13 -1.35913e-12)
(1.52809e-05 9.20261e-13 -6.84859e-13)
(1.52809e-05 6.23749e-13 -1.24154e-12)
(1.52809e-05 6.6268e-13 -5.33731e-13)
(1.52809e-05 5.04775e-13 -4.38679e-13)
(1.52809e-05 3.66006e-13 -3.68544e-13)
(1.52809e-05 2.85008e-13 -2.41246e-13)
(1.52809e-05 2.09757e-13 -1.7946e-13)
(1.52809e-05 1.54238e-13 -1.34514e-13)
(1.52809e-05 1.18958e-13 -9.36728e-14)
(1.52809e-05 9.6193e-14 -6.61875e-14)
(1.52809e-05 8.18117e-14 -4.81975e-14)
(1.52809e-05 7.2968e-14 -3.58641e-14)
(1.52809e-05 6.72295e-14 -2.80775e-14)
(1.52809e-05 6.32273e-14 -2.37541e-14)
(1.52809e-05 6.00668e-14 -2.17382e-14)
(1.52809e-05 5.6874e-14 -2.11834e-14)
(1.52809e-05 5.35572e-14 -2.15833e-14)
(1.52809e-05 5.00693e-14 -2.25961e-14)
(1.52809e-05 4.65278e-14 -2.39571e-14)
(1.52809e-05 4.31144e-14 -2.55158e-14)
(1.52809e-05 3.96368e-14 -2.71837e-14)
(1.52809e-05 3.59747e-14 -2.88632e-14)
(1.52809e-05 3.24034e-14 -3.03989e-14)
(1.52809e-05 2.89124e-14 -3.18419e-14)
(1.52809e-05 2.55497e-14 -3.31861e-14)
(1.52809e-05 2.23592e-14 -3.44885e-14)
(1.52809e-05 1.93704e-14 -3.59293e-14)
(1.52809e-05 1.65678e-14 -3.76406e-14)
(1.52809e-05 1.39352e-14 -3.94044e-14)
(1.52809e-05 1.14525e-14 -4.11451e-14)
(1.52809e-05 9.18792e-15 -4.27351e-14)
(1.52809e-05 7.02388e-15 -4.40349e-14)
(1.52809e-05 5.14454e-15 -4.55597e-14)
(1.52809e-05 3.46525e-15 -4.72132e-14)
(1.52809e-05 1.89877e-15 -4.87075e-14)
(1.52809e-05 5.14538e-16 -4.99474e-14)
(1.52809e-05 -7.72433e-16 -5.10112e-14)
(1.52809e-05 -1.95377e-15 -5.1962e-14)
(1.52809e-05 -3.01813e-15 -5.28153e-14)
(1.52809e-05 -3.9798e-15 -5.35677e-14)
(1.52809e-05 -4.84388e-15 -5.42165e-14)
(1.52809e-05 -5.6131e-15 -5.47587e-14)
(1.52809e-05 -6.29058e-15 -5.5192e-14)
(1.52809e-05 -6.87845e-15 -5.55138e-14)
(1.52809e-05 -7.37688e-15 -5.57237e-14)
(1.52809e-05 -7.78959e-15 -5.5824e-14)
(1.52809e-05 -8.12338e-15 -5.5817e-14)
(1.52809e-05 -8.38465e-15 -5.57056e-14)
(1.52809e-05 -8.57942e-15 -5.54909e-14)
(1.52809e-05 -8.71505e-15 -5.51749e-14)
(1.52809e-05 -8.79648e-15 -5.47609e-14)
(1.52809e-05 -8.82382e-15 -5.42513e-14)
(1.52809e-05 -8.7979e-15 -5.36488e-14)
(1.52809e-05 -8.72063e-15 -5.29626e-14)
(1.52809e-05 -8.60017e-15 -5.22001e-14)
(1.52809e-05 -8.4423e-15 -5.13666e-14)
(1.52809e-05 -8.25187e-15 -5.04624e-14)
(1.52809e-05 -8.03311e-15 -4.94893e-14)
(1.52809e-05 -7.78944e-15 -4.8451e-14)
(1.52809e-05 -7.524e-15 -4.73522e-14)
(1.52809e-05 -7.23966e-15 -4.61971e-14)
(1.52809e-05 -6.93814e-15 -4.49905e-14)
(1.52809e-05 -6.6217e-15 -4.37386e-14)
(1.52809e-05 -6.29516e-15 -4.24459e-14)
(1.52809e-05 -5.96057e-15 -4.1115e-14)
(1.52809e-05 -5.61988e-15 -3.97507e-14)
(1.52809e-05 -5.27636e-15 -3.83576e-14)
(1.52809e-05 -4.93281e-15 -3.69399e-14)
(1.52809e-05 -4.59137e-15 -3.55008e-14)
(1.52809e-05 -4.25342e-15 -3.40448e-14)
(1.52809e-05 -3.92007e-15 -3.25765e-14)
(1.52809e-05 -3.59312e-15 -3.11013e-14)
(1.52809e-05 -3.27541e-15 -2.96216e-14)
(1.52809e-05 -2.96829e-15 -2.81398e-14)
(1.52809e-05 -2.67238e-15 -2.66579e-14)
(1.52809e-05 -2.38822e-15 -2.51783e-14)
(1.52809e-05 -2.11545e-15 -2.37032e-14)
(1.52809e-05 -1.85303e-15 -2.22345e-14)
(1.52809e-05 -1.59948e-15 -2.07713e-14)
(1.52809e-05 -1.35477e-15 -1.9312e-14)
(1.52809e-05 -1.12688e-15 -1.78571e-14)
(1.52809e-05 -9.14318e-16 -1.64055e-14)
(1.52809e-05 -7.16827e-16 -1.49401e-14)
(1.52809e-05 -5.38266e-16 -1.34565e-14)
(1.52809e-05 -4.02538e-16 -1.20109e-14)
(1.52809e-05 -2.95122e-16 -1.04646e-14)
(1.52809e-05 -1.86547e-16 -8.7318e-15)
(1.52809e-05 -3.14456e-16 -7.76475e-15)
(1.52809e-05 -4.94268e-16 -5.84777e-15)
(1.52809e-05 -6.59156e-16 -3.11847e-15)
(1.52809e-05 -2.53281e-15 -7.00155e-15)
(1.52809e-05 -2.47267e-15 5.4083e-15)
(1.52809e-05 -7.6095e-15 -6.9141e-15)
(1.52809e-05 -1.01719e-14 -5.19006e-15)
(1.52809e-05 -1.05143e-14 1.54032e-14)
(1.77193e-05 4.34406e-12 2.99384e-11)
(1.77192e-05 9.33727e-13 -1.73128e-11)
(1.77193e-05 1.41039e-12 6.54381e-12)
(1.77192e-05 3.18452e-13 -6.31033e-12)
(1.77193e-05 7.82422e-13 -9.98546e-13)
(1.77193e-05 6.14343e-13 -7.91604e-13)
(1.77193e-05 4.89519e-13 -1.43098e-12)
(1.77193e-05 5.08762e-13 -5.82859e-13)
(1.77193e-05 3.78881e-13 -5.21859e-13)
(1.77193e-05 2.92845e-13 -4.37836e-13)
(1.77193e-05 2.35754e-13 -2.87474e-13)
(1.77193e-05 1.75846e-13 -2.16728e-13)
(1.77193e-05 1.30756e-13 -1.6237e-13)
(1.77193e-05 1.01671e-13 -1.12353e-13)
(1.77193e-05 8.27821e-14 -7.88384e-14)
(1.77193e-05 7.10482e-14 -5.68627e-14)
(1.77193e-05 6.40395e-14 -4.1656e-14)
(1.77193e-05 5.95226e-14 -3.19898e-14)
(1.77193e-05 5.61007e-14 -2.65861e-14)
(1.77193e-05 5.32334e-14 -2.39862e-14)
(1.77193e-05 5.04607e-14 -2.29964e-14)
(1.77193e-05 4.73082e-14 -2.31156e-14)
(1.77193e-05 4.38172e-14 -2.39486e-14)
(1.77193e-05 4.0271e-14 -2.5233e-14)
(1.77193e-05 3.66748e-14 -2.69094e-14)
(1.77193e-05 3.27518e-14 -2.87333e-14)
(1.77193e-05 2.87488e-14 -3.04564e-14)
(1.77193e-05 2.50435e-14 -3.21519e-14)
(1.77193e-05 2.15432e-14 -3.38412e-14)
(1.77193e-05 1.82193e-14 -3.55039e-14)
(1.77193e-05 1.50742e-14 -3.71672e-14)
(1.77193e-05 1.2058e-14 -3.89001e-14)
(1.77193e-05 9.19297e-15 -4.07858e-14)
(1.77193e-05 6.46589e-15 -4.25695e-14)
(1.77193e-05 3.88256e-15 -4.4105e-14)
(1.77193e-05 1.65522e-15 -4.54737e-14)
(1.77193e-05 -2.20008e-16 -4.70256e-14)
(1.77193e-05 -1.92344e-15 -4.87905e-14)
(1.77193e-05 -3.43592e-15 -5.05009e-14)
(1.77193e-05 -5.00083e-15 -5.21247e-14)
(1.77193e-05 -6.48385e-15 -5.3711e-14)
(1.77193e-05 -7.85318e-15 -5.52184e-14)
(1.77193e-05 -9.09425e-15 -5.65166e-14)
(1.77193e-05 -1.0221e-14 -5.76009e-14)
(1.77193e-05 -1.124e-14 -5.85592e-14)
(1.77193e-05 -1.21501e-14 -5.93976e-14)
(1.77193e-05 -1.29537e-14 -6.01135e-14)
(1.77193e-05 -1.36531e-14 -6.07091e-14)
(1.77193e-05 -1.42466e-14 -6.11835e-14)
(1.77193e-05 -1.47344e-14 -6.15366e-14)
(1.77193e-05 -1.51189e-14 -6.17672e-14)
(1.77193e-05 -1.54096e-14 -6.18755e-14)
(1.77193e-05 -1.56138e-14 -6.1863e-14)
(1.77193e-05 -1.57392e-14 -6.17314e-14)
(1.77193e-05 -1.5792e-14 -6.14834e-14)
(1.77193e-05 -1.57779e-14 -6.11209e-14)
(1.77193e-05 -1.56994e-14 -6.06462e-14)
(1.77193e-05 -1.55573e-14 -6.00656e-14)
(1.77193e-05 -1.53555e-14 -5.93867e-14)
(1.77193e-05 -1.51021e-14 -5.8615e-14)
(1.77193e-05 -1.48051e-14 -5.77535e-14)
(1.77193e-05 -1.44687e-14 -5.68051e-14)
(1.77193e-05 -1.40979e-14 -5.5775e-14)
(1.77193e-05 -1.3695e-14 -5.46672e-14)
(1.77193e-05 -1.32636e-14 -5.34858e-14)
(1.77193e-05 -1.2808e-14 -5.22364e-14)
(1.77193e-05 -1.2331e-14 -5.09261e-14)
(1.77193e-05 -1.18372e-14 -4.95614e-14)
(1.77193e-05 -1.13302e-14 -4.8146e-14)
(1.77193e-05 -1.08118e-14 -4.66828e-14)
(1.77193e-05 -1.02828e-14 -4.5177e-14)
(1.77193e-05 -9.74861e-15 -4.36344e-14)
(1.77193e-05 -9.21348e-15 -4.20603e-14)
(1.77193e-05 -8.68044e-15 -4.04591e-14)
(1.77193e-05 -8.15025e-15 -3.88356e-14)
(1.77193e-05 -7.62453e-15 -3.7196e-14)
(1.77193e-05 -7.10718e-15 -3.55451e-14)
(1.77193e-05 -6.6005e-15 -3.38855e-14)
(1.77193e-05 -6.10544e-15 -3.22196e-14)
(1.77193e-05 -5.62331e-15 -3.05499e-14)
(1.77193e-05 -5.15366e-15 -2.88783e-14)
(1.77193e-05 -4.69629e-15 -2.72084e-14)
(1.77193e-05 -4.2502e-15 -2.55426e-14)
(1.77193e-05 -3.81626e-15 -2.38795e-14)
(1.77193e-05 -3.39554e-15 -2.22184e-14)
(1.77193e-05 -2.98936e-15 -2.05565e-14)
(1.77193e-05 -2.59956e-15 -1.88937e-14)
(1.77193e-05 -2.22923e-15 -1.72098e-14)
(1.77193e-05 -1.8848e-15 -1.54963e-14)
(1.77193e-05 -1.59205e-15 -1.38267e-14)
(1.77193e-05 -1.35314e-15 -1.20175e-14)
(1.77193e-05 -1.16619e-15 -9.84957e-15)
(1.77193e-05 -1.19608e-15 -8.67669e-15)
(1.77193e-05 -1.40105e-15 -6.35868e-15)
(1.77193e-05 -1.7364e-15 -2.48845e-15)
(1.77193e-05 -3.24601e-15 -7.01756e-15)
(1.77193e-05 -4.00686e-15 6.87282e-15)
(1.77193e-05 -8.23854e-15 -4.57765e-15)
(1.77193e-05 -9.29241e-15 -2.70616e-16)
(1.77193e-05 -1.06911e-14 1.48987e-14)
(1.92016e-05 2.68141e-12 3.17504e-11)
(1.92016e-05 5.79398e-13 -1.93396e-11)
(1.92016e-05 7.82224e-13 5.77092e-12)
(1.92016e-05 1.9587e-13 -6.68656e-12)
(1.92016e-05 3.08001e-13 -1.15853e-12)
(1.92016e-05 2.58827e-13 -1.07991e-12)
(1.92016e-05 2.59049e-13 -1.58358e-12)
(1.92016e-05 2.46127e-13 -6.50703e-13)
(1.92016e-05 1.70507e-13 -6.02153e-13)
(1.92016e-05 1.39792e-13 -4.9611e-13)
(1.92016e-05 1.13678e-13 -3.25364e-13)
(1.92016e-05 8.41988e-14 -2.46897e-13)
(1.92016e-05 6.37997e-14 -1.84318e-13)
(1.92016e-05 5.19833e-14 -1.27541e-13)
(1.92016e-05 4.52908e-14 -8.99313e-14)
(1.92016e-05 4.2162e-14 -6.51075e-14)
(1.92016e-05 4.10684e-14 -4.77442e-14)
(1.92016e-05 4.06036e-14 -3.66462e-14)
(1.92016e-05 3.98629e-14 -3.02792e-14)
(1.92016e-05 3.86032e-14 -2.70315e-14)
(1.92016e-05 3.71792e-14 -2.57166e-14)
(1.92016e-05 3.51573e-14 -2.55475e-14)
(1.92016e-05 3.25843e-14 -2.61314e-14)
(1.92016e-05 2.98601e-14 -2.73248e-14)
(1.92016e-05 2.67537e-14 -2.89667e-14)
(1.92016e-05 2.32561e-14 -3.0663e-14)
(1.92016e-05 1.99218e-14 -3.23601e-14)
(1.92016e-05 1.66868e-14 -3.41125e-14)
(1.92016e-05 1.3554e-14 -3.58975e-14)
(1.92016e-05 1.05704e-14 -3.76947e-14)
(1.92016e-05 7.77284e-15 -3.95691e-14)
(1.92016e-05 5.12957e-15 -4.15385e-14)
(1.92016e-05 2.57678e-15 -4.35065e-14)
(1.92016e-05 9.56988e-17 -4.5323e-14)
(1.92016e-05 -2.23368e-15 -4.69058e-14)
(1.92016e-05 -4.03698e-15 -4.85228e-14)
(1.92016e-05 -5.68671e-15 -5.02343e-14)
(1.92016e-05 -7.35915e-15 -5.19902e-14)
(1.92016e-05 -9.01617e-15 -5.37198e-14)
(1.92016e-05 -1.05691e-14 -5.53831e-14)
(1.92016e-05 -1.20365e-14 -5.70655e-14)
(1.92016e-05 -1.33812e-14 -5.85634e-14)
(1.92016e-05 -1.46115e-14 -5.98501e-14)
(1.92016e-05 -1.57609e-14 -6.09948e-14)
(1.92016e-05 -1.68112e-14 -6.20181e-14)
(1.92016e-05 -1.77157e-14 -6.29062e-14)
(1.92016e-05 -1.8481e-14 -6.36525e-14)
(1.92016e-05 -1.91566e-14 -6.4275e-14)
(1.92016e-05 -1.97404e-14 -6.47765e-14)
(1.92016e-05 -2.02269e-14 -6.5157e-14)
(1.92016e-05 -2.06062e-14 -6.54194e-14)
(1.92016e-05 -2.08913e-14 -6.55568e-14)
(1.92016e-05 -2.10895e-14 -6.55667e-14)
(1.92016e-05 -2.12094e-14 -6.54506e-14)
(1.92016e-05 -2.12548e-14 -6.52097e-14)
(1.92016e-05 -2.12296e-14 -6.48464e-14)
(1.92016e-05 -2.1139e-14 -6.43658e-14)
(1.92016e-05 -2.09843e-14 -6.37759e-14)
(1.92016e-05 -2.07683e-14 -6.30824e-14)
(1.92016e-05 -2.04974e-14 -6.22873e-14)
(1.92016e-05 -2.01767e-14 -6.13927e-14)
(1.92016e-05 -1.98102e-14 -6.04053e-14)
(1.92016e-05 -1.94023e-14 -5.93314e-14)
(1.92016e-05 -1.89561e-14 -5.81736e-14)
(1.92016e-05 -1.84757e-14 -5.69356e-14)
(1.92016e-05 -1.79649e-14 -5.56252e-14)
(1.92016e-05 -1.74277e-14 -5.42506e-14)
(1.92016e-05 -1.68687e-14 -5.28166e-14)
(1.92016e-05 -1.62896e-14 -5.13265e-14)
(1.92016e-05 -1.56897e-14 -4.97866e-14)
(1.92016e-05 -1.50673e-14 -4.82035e-14)
(1.92016e-05 -1.44317e-14 -4.65808e-14)
(1.92016e-05 -1.37888e-14 -4.49232e-14)
(1.92016e-05 -1.31419e-14 -4.32361e-14)
(1.92016e-05 -1.2493e-14 -4.15255e-14)
(1.92016e-05 -1.18442e-14 -3.97973e-14)
(1.92016e-05 -1.12014e-14 -3.80541e-14)
(1.92016e-05 -1.0575e-14 -3.63038e-14)
(1.92016e-05 -9.9563e-15 -3.45458e-14)
(1.92016e-05 -9.34247e-15 -3.27827e-14)
(1.92016e-05 -8.71666e-15 -3.10092e-14)
(1.92016e-05 -8.08697e-15 -2.92319e-14)
(1.92016e-05 -7.46465e-15 -2.74587e-14)
(1.92016e-05 -6.85503e-15 -2.56877e-14)
(1.92016e-05 -6.25808e-15 -2.39156e-14)
(1.92016e-05 -5.67168e-15 -2.21408e-14)
(1.92016e-05 -5.09649e-15 -2.03645e-14)
(1.92016e-05 -4.53528e-15 -1.85649e-14)
(1.92016e-05 -3.99377e-15 -1.67281e-14)
(1.92016e-05 -3.49045e-15 -1.49401e-14)
(1.92016e-05 -3.03798e-15 -1.30229e-14)
(1.92016e-05 -2.64772e-15 -1.07787e-14)
(1.92016e-05 -2.40339e-15 -9.47781e-15)
(1.92016e-05 -2.35776e-15 -7.04502e-15)
(1.92016e-05 -2.59812e-15 -2.82946e-15)
(1.92016e-05 -3.41125e-15 -7.17847e-15)
(1.92016e-05 -3.792e-15 7.54859e-15)
(1.92016e-05 -7.03574e-15 -6.70036e-15)
(1.92016e-05 -7.55986e-15 1.03372e-15)
(1.92016e-05 -7.95202e-15 1.50077e-14)
(1.99058e-05 8.91175e-13 3.22609e-11)
(1.99058e-05 2.21137e-13 -1.99495e-11)
(1.99058e-05 2.9733e-13 6.28849e-12)
(1.99058e-05 2.37354e-14 -6.75297e-12)
(1.99058e-05 1.10242e-14 -1.31451e-12)
(1.99058e-05 3.19534e-15 -1.13402e-12)
(1.99058e-05 -1.45888e-14 -1.61414e-12)
(1.99058e-05 -2.7929e-14 -6.78415e-13)
(1.99058e-05 -4.64281e-14 -6.33578e-13)
(1.99058e-05 -4.54352e-14 -5.16717e-13)
(1.99058e-05 -4.17429e-14 -3.37916e-13)
(1.99058e-05 -3.60013e-14 -2.58122e-13)
(1.99058e-05 -2.69173e-14 -1.92392e-13)
(1.99058e-05 -1.6508e-14 -1.32712e-13)
(1.99058e-05 -6.60872e-15 -9.37173e-14)
(1.99058e-05 2.1318e-15 -6.79512e-14)
(1.99058e-05 9.25782e-15 -4.98929e-14)
(1.99058e-05 1.44877e-14 -3.83437e-14)
(1.99058e-05 1.78607e-14 -3.16311e-14)
(1.99058e-05 1.95653e-14 -2.80672e-14)
(1.99058e-05 2.0078e-14 -2.66427e-14)
(1.99058e-05 1.95397e-14 -2.6411e-14)
(1.99058e-05 1.81708e-14 -2.69131e-14)
(1.99058e-05 1.63169e-14 -2.81077e-14)
(1.99058e-05 1.40961e-14 -2.97409e-14)
(1.99058e-05 1.1679e-14 -3.14082e-14)
(1.99058e-05 9.23368e-15 -3.311e-14)
(1.99058e-05 6.80018e-15 -3.48724e-14)
(1.99058e-05 4.38527e-15 -3.66866e-14)
(1.99058e-05 2.05698e-15 -3.85313e-14)
(1.99058e-05 -1.59434e-16 -4.0525e-14)
(1.99058e-05 -2.28214e-15 -4.25609e-14)
(1.99058e-05 -4.32871e-15 -4.45286e-14)
(1.99058e-05 -6.3036e-15 -4.62184e-14)
(1.99058e-05 -8.15844e-15 -4.7804e-14)
(1.99058e-05 -9.7903e-15 -4.95913e-14)
(1.99058e-05 -1.14481e-14 -5.1512e-14)
(1.99058e-05 -1.29926e-14 -5.32774e-14)
(1.99058e-05 -1.4464e-14 -5.49828e-14)
(1.99058e-05 -1.58508e-14 -5.65881e-14)
(1.99058e-05 -1.71373e-14 -5.80852e-14)
(1.99058e-05 -1.83356e-14 -5.94745e-14)
(1.99058e-05 -1.9453e-14 -6.07533e-14)
(1.99058e-05 -2.04901e-14 -6.18695e-14)
(1.99058e-05 -2.14478e-14 -6.28576e-14)
(1.99058e-05 -2.23022e-14 -6.37269e-14)
(1.99058e-05 -2.30496e-14 -6.44752e-14)
(1.99058e-05 -2.37009e-14 -6.51006e-14)
(1.99058e-05 -2.42649e-14 -6.56031e-14)
(1.99058e-05 -2.4744e-14 -6.59889e-14)
(1.99058e-05 -2.51477e-14 -6.63071e-14)
(1.99058e-05 -2.54626e-14 -6.65046e-14)
(1.99058e-05 -2.56864e-14 -6.65682e-14)
(1.99058e-05 -2.58334e-14 -6.64961e-14)
(1.99058e-05 -2.5908e-14 -6.62891e-14)
(1.99058e-05 -2.59121e-14 -6.59489e-14)
(1.99058e-05 -2.58488e-14 -6.54832e-14)
(1.99058e-05 -2.57203e-14 -6.49013e-14)
(1.99058e-05 -2.55277e-14 -6.42094e-14)
(1.99058e-05 -2.52737e-14 -6.34082e-14)
(1.99058e-05 -2.49634e-14 -6.25014e-14)
(1.99058e-05 -2.46006e-14 -6.14954e-14)
(1.99058e-05 -2.41881e-14 -6.03961e-14)
(1.99058e-05 -2.3731e-14 -5.92093e-14)
(1.99058e-05 -2.32337e-14 -5.79392e-14)
(1.99058e-05 -2.26996e-14 -5.65936e-14)
(1.99058e-05 -2.21329e-14 -5.51812e-14)
(1.99058e-05 -2.15362e-14 -5.3707e-14)
(1.99058e-05 -2.09111e-14 -5.2175e-14)
(1.99058e-05 -2.02571e-14 -5.05984e-14)
(1.99058e-05 -1.95788e-14 -4.89988e-14)
(1.99058e-05 -1.8881e-14 -4.73605e-14)
(1.99058e-05 -1.8168e-14 -4.5686e-14)
(1.99058e-05 -1.7443e-14 -4.39808e-14)
(1.99058e-05 -1.67091e-14 -4.22517e-14)
(1.99058e-05 -1.5968e-14 -4.05045e-14)
(1.99058e-05 -1.52222e-14 -3.87408e-14)
(1.99058e-05 -1.44756e-14 -3.69637e-14)
(1.99058e-05 -1.37267e-14 -3.51772e-14)
(1.99058e-05 -1.29737e-14 -3.33857e-14)
(1.99058e-05 -1.22135e-14 -3.15913e-14)
(1.99058e-05 -1.14497e-14 -2.97971e-14)
(1.99058e-05 -1.0687e-14 -2.80064e-14)
(1.99058e-05 -9.92565e-15 -2.62079e-14)
(1.99058e-05 -9.16663e-15 -2.44025e-14)
(1.99058e-05 -8.4082e-15 -2.25944e-14)
(1.99058e-05 -7.64998e-15 -2.07854e-14)
(1.99058e-05 -6.89341e-15 -1.89523e-14)
(1.99058e-05 -6.14342e-15 -1.70762e-14)
(1.99058e-05 -5.40969e-15 -1.52403e-14)
(1.99058e-05 -4.7061e-15 -1.32719e-14)
(1.99058e-05 -4.04344e-15 -1.09563e-14)
(1.99058e-05 -3.45942e-15 -9.53555e-15)
(1.99058e-05 -2.97254e-15 -6.87558e-15)
(1.99058e-05 -2.66297e-15 -2.51345e-15)
(1.99058e-05 -2.56806e-15 -6.76323e-15)
(1.99058e-05 -2.12888e-15 9.46991e-15)
(1.99058e-05 -3.04187e-15 -5.78783e-15)
(1.99058e-05 -3.15979e-15 2.84713e-15)
(1.99058e-05 -2.91354e-15 1.50094e-14)
(1.99058e-05 -1.05421e-12 3.22773e-11)
(1.99058e-05 -4.89166e-13 -1.99254e-11)
(1.99058e-05 -4.95609e-13 6.34966e-12)
(1.99058e-05 -2.50172e-13 -6.72548e-12)
(1.99058e-05 -2.76783e-13 -1.28176e-12)
(1.99058e-05 -3.01455e-13 -1.09766e-12)
(1.99058e-05 -3.15441e-13 -1.59643e-12)
(1.99058e-05 -3.15008e-13 -6.66856e-13)
(1.99058e-05 -2.79798e-13 -6.25206e-13)
(1.99058e-05 -2.49156e-13 -5.10495e-13)
(1.99058e-05 -2.09579e-13 -3.33178e-13)
(1.99058e-05 -1.65385e-13 -2.54871e-13)
(1.99058e-05 -1.25032e-13 -1.90274e-13)
(1.99058e-05 -9.07395e-14 -1.31271e-13)
(1.99058e-05 -6.28969e-14 -9.26873e-14)
(1.99058e-05 -4.14568e-14 -6.72608e-14)
(1.99058e-05 -2.56326e-14 -4.94949e-14)
(1.99058e-05 -1.4392e-14 -3.81218e-14)
(1.99058e-05 -6.74943e-15 -3.14489e-14)
(1.99058e-05 -1.85883e-15 -2.77539e-14)
(1.99058e-05 7.19877e-16 -2.63731e-14)
(1.99058e-05 1.70137e-15 -2.60806e-14)
(1.99058e-05 1.69029e-15 -2.65158e-14)
(1.99058e-05 8.93022e-16 -2.76223e-14)
(1.99058e-05 -2.05283e-16 -2.91743e-14)
(1.99058e-05 -1.28927e-15 -3.07836e-14)
(1.99058e-05 -2.63574e-15 -3.23445e-14)
(1.99058e-05 -4.08376e-15 -3.39849e-14)
(1.99058e-05 -5.5894e-15 -3.58385e-14)
(1.99058e-05 -7.09703e-15 -3.76387e-14)
(1.99058e-05 -8.60996e-15 -3.95328e-14)
(1.99058e-05 -1.00729e-14 -4.14739e-14)
(1.99058e-05 -1.14581e-14 -4.33658e-14)
(1.99058e-05 -1.27261e-14 -4.50448e-14)
(1.99058e-05 -1.4004e-14 -4.65748e-14)
(1.99058e-05 -1.55734e-14 -4.8244e-14)
(1.99058e-05 -1.7024e-14 -4.99708e-14)
(1.99058e-05 -1.82495e-14 -5.17041e-14)
(1.99058e-05 -1.94838e-14 -5.34225e-14)
(1.99058e-05 -2.06495e-14 -5.50461e-14)
(1.99058e-05 -2.17137e-14 -5.65509e-14)
(1.99058e-05 -2.27027e-14 -5.79486e-14)
(1.99058e-05 -2.36274e-14 -5.92365e-14)
(1.99058e-05 -2.4548e-14 -6.03646e-14)
(1.99058e-05 -2.53992e-14 -6.13486e-14)
(1.99058e-05 -2.61423e-14 -6.22171e-14)
(1.99058e-05 -2.67863e-14 -6.29742e-14)
(1.99058e-05 -2.7338e-14 -6.36218e-14)
(1.99058e-05 -2.78219e-14 -6.41485e-14)
(1.99058e-05 -2.82444e-14 -6.45529e-14)
(1.99058e-05 -2.8616e-14 -6.48396e-14)
(1.99058e-05 -2.8913e-14 -6.50144e-14)
(1.99058e-05 -2.91209e-14 -6.509e-14)
(1.99058e-05 -2.9265e-14 -6.50342e-14)
(1.99058e-05 -2.93458e-14 -6.48444e-14)
(1.99058e-05 -2.93614e-14 -6.45227e-14)
(1.99058e-05 -2.9314e-14 -6.40756e-14)
(1.99058e-05 -2.92077e-14 -6.35112e-14)
(1.99058e-05 -2.90421e-14 -6.28371e-14)
(1.99058e-05 -2.88149e-14 -6.20561e-14)
(1.99058e-05 -2.85284e-14 -6.1172e-14)
(1.99058e-05 -2.81865e-14 -6.01897e-14)
(1.99058e-05 -2.77929e-14 -5.91155e-14)
(1.99058e-05 -2.73507e-14 -5.79544e-14)
(1.99058e-05 -2.68631e-14 -5.67116e-14)
(1.99058e-05 -2.63346e-14 -5.53936e-14)
(1.99058e-05 -2.57682e-14 -5.40097e-14)
(1.99058e-05 -2.51655e-14 -5.25654e-14)
(1.99058e-05 -2.45301e-14 -5.1066e-14)
(1.99058e-05 -2.38603e-14 -4.95257e-14)
(1.99058e-05 -2.3159e-14 -4.79586e-14)
(1.99058e-05 -2.24342e-14 -4.63526e-14)
(1.99058e-05 -2.16881e-14 -4.47117e-14)
(1.99058e-05 -2.0923e-14 -4.30401e-14)
(1.99058e-05 -2.01421e-14 -4.13447e-14)
(1.99058e-05 -1.93475e-14 -3.96313e-14)
(1.99058e-05 -1.85385e-14 -3.79031e-14)
(1.99058e-05 -1.77171e-14 -3.61615e-14)
(1.99058e-05 -1.68841e-14 -3.44115e-14)
(1.99058e-05 -1.60391e-14 -3.26563e-14)
(1.99058e-05 -1.51827e-14 -3.08996e-14)
(1.99058e-05 -1.43165e-14 -2.91436e-14)
(1.99058e-05 -1.34428e-14 -2.73896e-14)
(1.99058e-05 -1.25666e-14 -2.56272e-14)
(1.99058e-05 -1.16848e-14 -2.38566e-14)
(1.99058e-05 -1.07913e-14 -2.20834e-14)
(1.99058e-05 -9.88439e-15 -2.03112e-14)
(1.99058e-05 -8.96476e-15 -1.8516e-14)
(1.99058e-05 -8.03815e-15 -1.66806e-14)
(1.99058e-05 -7.10959e-15 -1.48847e-14)
(1.99058e-05 -6.18964e-15 -1.29602e-14)
(1.99058e-05 -5.2953e-15 -1.0692e-14)
(1.99058e-05 -4.42437e-15 -9.30705e-15)
(1.99058e-05 -3.58007e-15 -6.66981e-15)
(1.99058e-05 -2.67106e-15 -2.3365e-15)
(1.99058e-05 -1.64749e-15 -6.6148e-15)
(1.99058e-05 -1.04356e-15 9.58064e-15)
(1.99058e-05 8.37809e-16 -5.52621e-15)
(1.99058e-05 1.48852e-15 2.64268e-15)
(1.99058e-05 2.76181e-15 1.55019e-14)
(1.92016e-05 -2.91933e-12 3.18025e-11)
(1.92016e-05 -8.01498e-13 -1.92779e-11)
(1.92016e-05 -9.78797e-13 5.89993e-12)
(1.92016e-05 -3.78625e-13 -6.58321e-12)
(1.92016e-05 -5.00302e-13 -1.07987e-12)
(1.92016e-05 -5.04883e-13 -1.00165e-12)
(1.92016e-05 -5.30719e-13 -1.53922e-12)
(1.92016e-05 -5.38465e-13 -6.16599e-13)
(1.92016e-05 -4.55388e-13 -5.781e-13)
(1.92016e-05 -4.01318e-13 -4.78252e-13)
(1.92016e-05 -3.37389e-13 -3.10634e-13)
(1.92016e-05 -2.62926e-13 -2.3697e-13)
(1.92016e-05 -1.97624e-13 -1.78024e-13)
(1.92016e-05 -1.45023e-13 -1.23157e-13)
(1.92016e-05 -1.03853e-13 -8.68308e-14)
(1.92016e-05 -7.32204e-14 -6.30192e-14)
(1.92016e-05 -5.12973e-14 -4.64812e-14)
(1.92016e-05 -3.59933e-14 -3.58656e-14)
(1.92016e-05 -2.54336e-14 -2.96026e-14)
(1.92016e-05 -1.86557e-14 -2.61925e-14)
(1.92016e-05 -1.48023e-14 -2.45859e-14)
(1.92016e-05 -1.27202e-14 -2.40582e-14)
(1.92016e-05 -1.17472e-14 -2.44077e-14)
(1.92016e-05 -1.16456e-14 -2.5387e-14)
(1.92016e-05 -1.18953e-14 -2.68157e-14)
(1.92016e-05 -1.20442e-14 -2.84398e-14)
(1.92016e-05 -1.22169e-14 -3.00269e-14)
(1.92016e-05 -1.25337e-14 -3.16757e-14)
(1.92016e-05 -1.30155e-14 -3.34177e-14)
(1.92016e-05 -1.35931e-14 -3.51047e-14)
(1.92016e-05 -1.42596e-14 -3.67383e-14)
(1.92016e-05 -1.49996e-14 -3.85067e-14)
(1.92016e-05 -1.57173e-14 -4.02833e-14)
(1.92016e-05 -1.63626e-14 -4.19606e-14)
(1.92016e-05 -1.68927e-14 -4.33692e-14)
(1.92016e-05 -1.77589e-14 -4.47356e-14)