/*--------------------------------*- C++ -*----------------------------------*\
| =========                 |                                                 |
| \\      /  F ield         | OpenFOAM: The Open Source CFD Toolbox           |
|  \\    /   O peration     | Version:  2412                                  |
|   \\  /    A nd           | Website:  www.openfoam.com                      |
|    \\/     M anipulation  |                                                 |
\*---------------------------------------------------------------------------*/
FoamFile
{
    version     2.0;
    format      ascii;
    arch        "LSB;label=32;scalar=64";
    class       volScalarField;
    location    "300";
    object      p;
}
// * * * * * * * * * * * * * * * * * * * * * * * * * * * * * * * * * * * * * //

dimensions      [0 2 -2 0 0 0 0];

internalField   nonuniform List<scalar> 
116500
(
0.000997447
0.000987468
0.000977482
0.000967489
0.000957493
0.000947494
0.000937495
0.000927496
0.000917496
0.000907496
0.000897496
0.000887496
0.000877496
0.000867496
0.000857496
0.000847496
0.000837496
0.000827496
0.000817496
0.000807496
0.000797496
0.000787496
0.000777496
0.000767496
0.000757495
0.000747495
0.000737495
0.000727495
0.000717495
0.000707495
0.000697495
0.000687495
0.000677495
0.000667495
0.000657495
0.000647495
0.000637494
0.000627494
0.000617494
0.000607494
0.000597494
0.000587494
0.000577494
0.000567494
0.000557494
0.000547494
0.000537494
0.000527494
0.000517493
0.000507493
0.000497493
0.000487493
0.000477493
0.000467493
0.000457493
0.000447493
0.000437493
0.000427493
0.000417493
0.000407492
0.000397492
0.000387492
0.000377492
0.000367492
0.000357492
0.000347492
0.000337492
0.000327492
0.000317492
0.000307492
0.000297492
0.000287491
0.000277491
0.000267491
0.000257491
0.000247491
0.000237491
0.000227491
0.000217491
0.000207491
0.000197491
0.000187491
0.000177491
0.00016749
0.00015749
0.00014749
0.00013749
0.00012749
0.00011749
0.00010749
9.74901e-05
8.74902e-05
7.74904e-05
6.74908e-05
5.74915e-05
4.74928e-05
3.74953e-05
2.75002e-05
1.75102e-05
7.53398e-06
0.000997448
0.000987468
0.000977482
0.000967489
0.000957492
0.000947494
0.000937495
0.000927495
0.000917496
0.000907496
0.000897496
0.000887496
0.000877496
0.000867496
0.000857496
0.000847496
0.000837496
0.000827495
0.000817495
0.000807495
0.000797495
0.000787495
0.000777495
0.000767495
0.000757495
0.000747495
0.000737495
0.000727495
0.000717495
0.000707494
0.000697494
0.000687494
0.000677494
0.000667494
0.000657494
0.000647494
0.000637494
0.000627494
0.000617494
0.000607494
0.000597494
0.000587493
0.000577493
0.000567493
0.000557493
0.000547493
0.000537493
0.000527493
0.000517493
0.000507493
0.000497493
0.000487493
0.000477493
0.000467492
0.000457492
0.000447492
0.000437492
0.000427492
0.000417492
0.000407492
0.000397492
0.000387492
0.000377492
0.000367492
0.000357492
0.000347491
0.000337491
0.000327491
0.000317491
0.000307491
0.000297491
0.000287491
0.000277491
0.000267491
0.000257491
0.000247491
0.000237491
0.00022749
0.00021749
0.00020749
0.00019749
0.00018749
0.00017749
0.00016749
0.00015749
0.00014749
0.00013749
0.00012749
0.00011749
0.00010749
9.74896e-05
8.74897e-05
7.74899e-05
6.74902e-05
5.7491e-05
4.74923e-05
3.74948e-05
2.74997e-05
1.75095e-05
7.53204e-06
0.000997437
0.000987465
0.00097748
0.000967487
0.00095749
0.000947491
0.000937492
0.000927492
0.000917492
0.000907492
0.000897492
0.000887492
0.000877492
0.000867492
0.000857492
0.000847492
0.000837492
0.000827492
0.000817492
0.000807492
0.000797492
0.000787492
0.000777492
0.000767492
0.000757491
0.000747491
0.000737491
0.000727491
0.000717491
0.000707491
0.000697491
0.000687491
0.000677491
0.000667491
0.000657491
0.000647491
0.00063749
0.00062749
0.00061749
0.00060749
0.00059749
0.00058749
0.00057749
0.00056749
0.00055749
0.00054749
0.00053749
0.00052749
0.000517489
0.000507489
0.000497489
0.000487489
0.000477489
0.000467489
0.000457489
0.000447489
0.000437489
0.000427489
0.000417489
0.000407489
0.000397488
0.000387488
0.000377488
0.000367488
0.000357488
0.000347488
0.000337488
0.000327488
0.000317488
0.000307488
0.000297488
0.000287488
0.000277487
0.000267487
0.000257487
0.000247487
0.000237487
0.000227487
0.000217487
0.000207487
0.000197487
0.000187487
0.000177487
0.000167487
0.000157487
0.000147486
0.000137486
0.000127486
0.000117486
0.000107486
9.74862e-05
8.74863e-05
7.74864e-05
6.74867e-05
5.74872e-05
4.74883e-05
3.74903e-05
2.74946e-05
1.75044e-05
7.53275e-06
0.000997449
0.000987486
0.000977496
0.000967501
0.000957503
0.000947505
0.000937505
0.000927506
0.000917506
0.000907506
0.000897506
0.000887506
0.000877506
0.000867506
0.000857506
0.000847506
0.000837506
0.000827506
0.000817506
0.000807505
0.000797505
0.000787505
0.000777505
0.000767505
0.000757505
0.000747505
0.000737505
0.000727505
0.000717505
0.000707505
0.000697505
0.000687504
0.000677504
0.000667504
0.000657504
0.000647504
0.000637504
0.000627504
0.000617504
0.000607504
0.000597504
0.000587504
0.000577504
0.000567503
0.000557503
0.000547503
0.000537503
0.000527503
0.000517503
0.000507503
0.000497503
0.000487503
0.000477503
0.000467503
0.000457503
0.000447502
0.000437502
0.000427502
0.000417502
0.000407502
0.000397502
0.000387502
0.000377502
0.000367502
0.000357502
0.000347502
0.000337502
0.000327501
0.000317501
0.000307501
0.000297501
0.000287501
0.000277501
0.000267501
0.000257501
0.000247501
0.000237501
0.000227501
0.000217501
0.0002075
0.0001975
0.0001875
0.0001775
0.0001675
0.0001575
0.0001475
0.0001375
0.0001275
0.0001175
0.0001075
9.74997e-05
8.74998e-05
7.74999e-05
6.75002e-05
5.75008e-05
4.75018e-05
3.75037e-05
2.75075e-05
1.75148e-05
7.54003e-06
0.000997426
0.000987477
0.000977486
0.00096749
0.000957492
0.000947493
0.000937494
0.000927494
0.000917494
0.000907494
0.000897494
0.000887494
0.000877494
0.000867494
0.000857494
0.000847494
0.000837494
0.000827494
0.000817494
0.000807494
0.000797493
0.000787493
0.000777493
0.000767493
0.000757493
0.000747493
0.000737493
0.000727493
0.000717493
0.000707493
0.000697493
0.000687493
0.000677492
0.000667492
0.000657492
0.000647492
0.000637492
0.000627492
0.000617492
0.000607492
0.000597492
0.000587492
0.000577492
0.000567492
0.000557491
0.000547491
0.000537491
0.000527491
0.000517491
0.000507491
0.000497491
0.000487491
0.000477491
0.000467491
0.000457491
0.000447491
0.00043749
0.00042749
0.00041749
0.00040749
0.00039749
0.00038749
0.00037749
0.00036749
0.00035749
0.00034749
0.00033749
0.00032749
0.000317489
0.000307489
0.000297489
0.000287489
0.000277489
0.000267489
0.000257489
0.000247489
0.000237489
0.000227489
0.000217489
0.000207489
0.000197488
0.000187488
0.000177488
0.000167488
0.000157488
0.000147488
0.000137488
0.000127488
0.000117488
0.000107488
9.74878e-05
8.74879e-05
7.7488e-05
6.74883e-05
5.74888e-05
4.74897e-05
3.74914e-05
2.74944e-05
1.74995e-05
7.52775e-06
0.000997425
0.000987478
0.000977486
0.00096749
0.000957491
0.000947493
0.000937493
0.000927494
0.000917494
0.000907494
0.000897494
0.000887494
0.000877494
0.000867494
0.000857494
0.000847494
0.000837494
0.000827494
0.000817493
0.000807493
0.000797493
0.000787493
0.000777493
0.000767493
0.000757493
0.000747493
0.000737493
0.000727493
0.000717493
0.000707493
0.000697492
0.000687492
0.000677492
0.000667492
0.000657492
0.000647492
0.000637492
0.000627492
0.000617492
0.000607492
0.000597492
0.000587492
0.000577491
0.000567491
0.000557491
0.000547491
0.000537491
0.000527491
0.000517491
0.000507491
0.000497491
0.000487491
0.000477491
0.000467491
0.00045749
0.00044749
0.00043749
0.00042749
0.00041749
0.00040749
0.00039749
0.00038749
0.00037749
0.00036749
0.00035749
0.00034749
0.000337489
0.000327489
0.000317489
0.000307489
0.000297489
0.000287489
0.000277489
0.000267489
0.000257489
0.000247489
0.000237489
0.000227489
0.000217488
0.000207488
0.000197488
0.000187488
0.000177488
0.000167488
0.000157488
0.000147488
0.000137488
0.000127488
0.000117488
0.000107488
9.74876e-05
8.74877e-05
7.74878e-05
6.74881e-05
5.74886e-05
4.74895e-05
3.74911e-05
2.74938e-05
1.74984e-05
7.52633e-06
0.000997437
0.000987485
0.000977489
0.000967491
0.000957493
0.000947494
0.000937495
0.000927495
0.000917495
0.000907495
0.000897495
0.000887495
0.000877495
0.000867495
0.000857495
0.000847495
0.000837495
0.000827495
0.000817495
0.000807495
0.000797495
0.000787495
0.000777495
0.000767494
0.000757494
0.000747494
0.000737494
0.000727494
0.000717494
0.000707494
0.000697494
0.000687494
0.000677494
0.000667494
0.000657494
0.000647493
0.000637493
0.000627493
0.000617493
0.000607493
0.000597493
0.000587493
0.000577493
0.000567493
0.000557493
0.000547493
0.000537493
0.000527492
0.000517492
0.000507492
0.000497492
0.000487492
0.000477492
0.000467492
0.000457492
0.000447492
0.000437492
0.000427492
0.000417492
0.000407491
0.000397491
0.000387491
0.000377491
0.000367491
0.000357491
0.000347491
0.000337491
0.000327491
0.000317491
0.000307491
0.000297491
0.00028749
0.00027749
0.00026749
0.00025749
0.00024749
0.00023749
0.00022749
0.00021749
0.00020749
0.00019749
0.00018749
0.00017749
0.000167489
0.000157489
0.000147489
0.000137489
0.000127489
0.000117489
0.000107489
9.74891e-05
8.74891e-05
7.74893e-05
6.74896e-05
5.74902e-05
4.74912e-05
3.74928e-05
2.74951e-05
1.74975e-05
7.51697e-06
0.000997435
0.000987483
0.000977488
0.000967491
0.000957492
0.000947494
0.000937494
0.000927495
0.000917495
0.000907495
0.000897495
0.000887495
0.000877495
0.000867495
0.000857495
0.000847495
0.000837495
0.000827495
0.000817495
0.000807494
0.000797494
0.000787494
0.000777494
0.000767494
0.000757494
0.000747494
0.000737494
0.000727494
0.000717494
0.000707494
0.000697494
0.000687493
0.000677493
0.000667493
0.000657493
0.000647493
0.000637493
0.000627493
0.000617493
0.000607493
0.000597493
0.000587493
0.000577493
0.000567492
0.000557492
0.000547492
0.000537492
0.000527492
0.000517492
0.000507492
0.000497492
0.000487492
0.000477492
0.000467492
0.000457492
0.000447491
0.000437491
0.000427491
0.000417491
0.000407491
0.000397491
0.000387491
0.000377491
0.000367491
0.000357491
0.000347491
0.000337491
0.00032749
0.00031749
0.00030749
0.00029749
0.00028749
0.00027749
0.00026749
0.00025749
0.00024749
0.00023749
0.00022749
0.00021749
0.000207489
0.000197489
0.000187489
0.000177489
0.000167489
0.000157489
0.000147489
0.000137489
0.000127489
0.000117489
0.000107489
9.74887e-05
8.74888e-05
7.74889e-05
6.74892e-05
5.74898e-05
4.74908e-05
3.74923e-05
2.74948e-05
1.74977e-05
7.51873e-06
0.000997424
0.000987477
0.000977486
0.000967489
0.000957491
0.000947492
0.000937493
0.000927493
0.000917494
0.000907494
0.000897494
0.000887494
0.000877494
0.000867494
0.000857494
0.000847493
0.000837493
0.000827493
0.000817493
0.000807493
0.000797493
0.000787493
0.000777493
0.000767493
0.000757493
0.000747493
0.000737493
0.000727493
0.000717492
0.000707492
0.000697492
0.000687492
0.000677492
0.000667492
0.000657492
0.000647492
0.000637492
0.000627492
0.000617492
0.000607491
0.000597491
0.000587491
0.000577491
0.000567491
0.000557491
0.000547491
0.000537491
0.000527491
0.000517491
0.000507491
0.000497491
0.00048749
0.00047749
0.00046749
0.00045749
0.00044749
0.00043749
0.00042749
0.00041749
0.00040749
0.00039749
0.00038749
0.00037749
0.000367489
0.000357489
0.000347489
0.000337489
0.000327489
0.000317489
0.000307489
0.000297489
0.000287489
0.000277489
0.000267489
0.000257489
0.000247488
0.000237488
0.000227488
0.000217488
0.000207488
0.000197488
0.000187488
0.000177488
0.000167488
0.000157488
0.000147488
0.000137488
0.000127488
0.000117487
0.000107487
9.74874e-05
8.74874e-05
7.74876e-05
6.74878e-05
5.74883e-05
4.74893e-05
3.74909e-05
2.74936e-05
1.74985e-05
7.52709e-06
0.000997432
0.00098748
0.000977488
0.000967492
0.000957494
0.000947496
0.000937496
0.000927497
0.000917497
0.000907497
0.000897497
0.000887497
0.000877497
0.000867497
0.000857497
0.000847497
0.000837497
0.000827497
0.000817496
0.000807496
0.000797496
0.000787496
0.000777496
0.000767496
0.000757496
0.000747496
0.000737496
0.000727496
0.000717496
0.000707496
0.000697496
0.000687495
0.000677495
0.000667495
0.000657495
0.000647495
0.000637495
0.000627495
0.000617495
0.000607495
0.000597495
0.000587495
0.000577494
0.000567494
0.000557494
0.000547494
0.000537494
0.000527494
0.000517494
0.000507494
0.000497494
0.000487494
0.000477494
0.000467494
0.000457493
0.000447493
0.000437493
0.000427493
0.000417493
0.000407493
0.000397493
0.000387493
0.000377493
0.000367493
0.000357493
0.000347493
0.000337492
0.000327492
0.000317492
0.000307492
0.000297492
0.000287492
0.000277492
0.000267492
0.000257492
0.000247492
0.000237492
0.000227492
0.000217491
0.000207491
0.000197491
0.000187491
0.000177491
0.000167491
0.000157491
0.000147491
0.000137491
0.000127491
0.000117491
0.000107491
9.74907e-05
8.74907e-05
7.74908e-05
6.74911e-05
5.74917e-05
4.74926e-05
3.74944e-05
2.74975e-05
1.75033e-05
7.5301e-06
0.000997439
0.000987467
0.00097748
0.000967486
0.000957489
0.00094749
0.000937491
0.000927491
0.000917492
0.000907492
0.000897492
0.000887492
0.000877492
0.000867492
0.000857492
0.000847492
0.000837491
0.000827491
0.000817491
0.000807491
0.000797491
0.000787491
0.000777491
0.000767491
0.000757491
0.000747491
0.000737491
0.000727491
0.00071749
0.00070749
0.00069749
0.00068749
0.00067749
0.00066749
0.00065749
0.00064749
0.00063749
0.00062749
0.00061749
0.00060749
0.000597489
0.000587489
0.000577489
0.000567489
0.000557489
0.000547489
0.000537489
0.000527489
0.000517489
0.000507489
0.000497489
0.000487489
0.000477488
0.000467488
0.000457488
0.000447488
0.000437488
0.000427488
0.000417488
0.000407488
0.000397488
0.000387488
0.000377488
0.000367488
0.000357487
0.000347487
0.000337487
0.000327487
0.000317487
0.000307487
0.000297487
0.000287487
0.000277487
0.000267487
0.000257487
0.000247487
0.000237486
0.000227486
0.000217486
0.000207486
0.000197486
0.000187486
0.000177486
0.000167486
0.000157486
0.000147486
0.000137486
0.000127486
0.000117486
0.000107485
9.74855e-05
8.74855e-05
7.74857e-05
6.74859e-05
5.74865e-05
4.74875e-05
3.74895e-05
2.74936e-05
1.75021e-05
7.52772e-06
0.000997436
0.000987463
0.000977481
0.000967488
0.000957491
0.000947493
0.000937493
0.000927494
0.000917494
0.000907494
0.000897494
0.000887494
0.000877494
0.000867494
0.000857494
0.000847494
0.000837494
0.000827494
0.000817494
0.000807493
0.000797493
0.000787493
0.000777493
0.000767493
0.000757493
0.000747493
0.000737493
0.000727493
0.000717493
0.000707493
0.000697493
0.000687492
0.000677492
0.000667492
0.000657492
0.000647492
0.000637492
0.000627492
0.000617492
0.000607492
0.000597492
0.000587492
0.000577492
0.000567491
0.000557491
0.000547491
0.000537491
0.000527491
0.000517491
0.000507491
0.000497491
0.000487491
0.000477491
0.000467491
0.000457491
0.00044749
0.00043749
0.00042749
0.00041749
0.00040749
0.00039749
0.00038749
0.00037749
0.00036749
0.00035749
0.00034749
0.00033749
0.000327489
0.000317489
0.000307489
0.000297489
0.000287489
0.000277489
0.000267489
0.000257489
0.000247489
0.000237489
0.000227489
0.000217489
0.000207488
0.000197488
0.000187488
0.000177488
0.000167488
0.000157488
0.000147488
0.000137488
0.000127488
0.000117488
0.000107488
9.74877e-05
8.74877e-05
7.74879e-05
6.74882e-05
5.74887e-05
4.74898e-05
3.7492e-05
2.74968e-05
1.7508e-05
7.5381e-06
0.000997443
0.000987467
0.000977482
0.000967488
0.000957491
0.000947492
0.000937493
0.000927494
0.000917494
0.000907494
0.000897494
0.000887494
0.000877494
0.000867494
0.000857494
0.000847494
0.000837494
0.000827493
0.000817493
0.000807493
0.000797493
0.000787493
0.000777493
0.000767493
0.000757493
0.000747493
0.000737493
0.000727493
0.000717493
0.000707492
0.000697492
0.000687492
0.000677492
0.000667492
0.000657492
0.000647492
0.000637492
0.000627492
0.000617492
0.000607492
0.000597492
0.000587491
0.000577491
0.000567491
0.000557491
0.000547491
0.000537491
0.000527491
0.000517491
0.000507491
0.000497491
0.000487491
0.000477491
0.000467491
0.00045749
0.00044749
0.00043749
0.00042749
0.00041749
0.00040749
0.00039749
0.00038749
0.00037749
0.00036749
0.00035749
0.00034749
0.000337489
0.000327489
0.000317489
0.000307489
0.000297489
0.000287489
0.000277489
0.000267489
0.000257489
0.000247489
0.000237489
0.000227489
0.000217488
0.000207488
0.000197488
0.000187488
0.000177488
0.000167488
0.000157488
0.000147488
0.000137488
0.000127488
0.000117488
0.000107488
9.74877e-05
8.74877e-05
7.74879e-05
6.74881e-05
5.74887e-05
4.74897e-05
3.74916e-05
2.74958e-05
1.75054e-05
7.53166e-06
0.00099744
0.000987484
0.000977494
0.000967498
0.000957501
0.000947502
0.000937502
0.000927503
0.000917503
0.000907503
0.000897503
0.000887503
0.000877503
0.000867503
0.000857503
0.000847503
0.000837503
0.000827503
0.000817502
0.000807502
0.000797502
0.000787502
0.000777502
0.000767502
0.000757502
0.000747502
0.000737502
0.000727502
0.000717502
0.000707502
0.000697502
0.000687501
0.000677501
0.000667501
0.000657501
0.000647501
0.000637501
0.000627501
0.000617501
0.000607501
0.000597501
0.000587501
0.000577501
0.0005675
0.0005575
0.0005475
0.0005375
0.0005275
0.0005175
0.0005075
0.0004975
0.0004875
0.0004775
0.0004675
0.0004575
0.000447499
0.000437499
0.000427499
0.000417499
0.000407499
0.000397499
0.000387499
0.000377499
0.000367499
0.000357499
0.000347499
0.000337499
0.000327498
0.000317498
0.000307498
0.000297498
0.000287498
0.000277498
0.000267498
0.000257498
0.000247498
0.000237498
0.000227498
0.000217498
0.000207497
0.000197497
0.000187497
0.000177497
0.000167497
0.000157497
0.000147497
0.000137497
0.000127497
0.000117497
0.000107497
9.74968e-05
8.74968e-05
7.74969e-05
6.74972e-05
5.74977e-05
4.74986e-05
3.75002e-05
2.75036e-05
1.75102e-05
7.53866e-06
0.000997435
0.000987497
0.000977498
0.000967499
0.0009575
0.000947501
0.000937501
0.000927502
0.000917502
0.000907502
0.000897502
0.000887502
0.000877502
0.000867502
0.000857502
0.000847502
0.000837502
0.000827502
0.000817502
0.000807501
0.000797501
0.000787501
0.000777501
0.000767501
0.000757501
0.000747501
0.000737501
0.000727501
0.000717501
0.000707501
0.000697501
0.0006875
0.0006775
0.0006675
0.0006575
0.0006475
0.0006375
0.0006275
0.0006175
0.0006075
0.0005975
0.0005875
0.0005775
0.000567499
0.000557499
0.000547499
0.000537499
0.000527499
0.000517499
0.000507499
0.000497499
0.000487499
0.000477499
0.000467499
0.000457499
0.000447498
0.000437498
0.000427498
0.000417498
0.000407498
0.000397498
0.000387498
0.000377498
0.000367498
0.000357498
0.000347498
0.000337498
0.000327497
0.000317497
0.000307497
0.000297497
0.000287497
0.000277497
0.000267497
0.000257497
0.000247497
0.000237497
0.000227497
0.000217497
0.000207496
0.000197496
0.000187496
0.000177496
0.000167496
0.000157496
0.000147496
0.000137496
0.000127496
0.000117496
0.000107496
9.74958e-05
8.74958e-05
7.74959e-05
6.74962e-05
5.74966e-05
4.74973e-05
3.74984e-05
2.74998e-05
1.75005e-05
7.5219e-06
0.00099504
0.000985014
0.000975001
0.000965001
0.000955002
0.000945002
0.000935003
0.000925003
0.000915003
0.000905003
0.000895003
0.000885003
0.000875003
0.000865003
0.000855003
0.000845003
0.000835003
0.000825003
0.000815003
0.000805003
0.000795002
0.000785002
0.000775002
0.000765002
0.000755002
0.000745002
0.000735002
0.000725002
0.000715002
0.000705002
0.000695002
0.000685002
0.000675001
0.000665001
0.000655001
0.000645001
0.000635001
0.000625001
0.000615001
0.000605001
0.000595001
0.000585001
0.000575001
0.000565001
0.000555
0.000545
0.000535
0.000525
0.000515
0.000505
0.000495
0.000485
0.000475
0.000465
0.000455
0.000445
0.000434999
0.000424999
0.000414999
0.000404999
0.000394999
0.000384999
0.000374999
0.000364999
0.000354999
0.000344999
0.000334999
0.000324999
0.000314998
0.000304998
0.000294998
0.000284998
0.000274998
0.000264998
0.000254998
0.000244998
0.000234998
0.000224998
0.000214998
0.000204998
0.000194997
0.000184997
0.000174997
0.000164997
0.000154997
0.000144997
0.000134997
0.000124997
0.000114997
0.000104997
9.49969e-05
8.49969e-05
7.4997e-05
6.49973e-05
5.49976e-05
4.4998e-05
3.49986e-05
2.49987e-05
1.49861e-05
4.96035e-06
0.000995035
0.000985011
0.000975001
0.000965001
0.000955002
0.000945002
0.000935003
0.000925003
0.000915003
0.000905003
0.000895003
0.000885003
0.000875003
0.000865003
0.000855003
0.000845003
0.000835003
0.000825003
0.000815003
0.000805003
0.000795002
0.000785002
0.000775002
0.000765002
0.000755002
0.000745002
0.000735002
0.000725002
0.000715002
0.000705002
0.000695002
0.000685002
0.000675001
0.000665001
0.000655001
0.000645001
0.000635001
0.000625001
0.000615001
0.000605001
0.000595001
0.000585001
0.000575001
0.000565001
0.000555
0.000545
0.000535
0.000525
0.000515
0.000505
0.000495
0.000485
0.000475
0.000465
0.000455
0.000445
0.000434999
0.000424999
0.000414999
0.000404999
0.000394999
0.000384999
0.000374999
0.000364999
0.000354999
0.000344999
0.000334999
0.000324999
0.000314998
0.000304998
0.000294998
0.000284998
0.000274998
0.000264998
0.000254998
0.000244998
0.000234998
0.000224998
0.000214998
0.000204998
0.000194997
0.000184997
0.000174997
0.000164997
0.000154997
0.000144997
0.000134997
0.000124997
0.000114997
0.000104997
9.49969e-05
8.49969e-05
7.4997e-05
6.49972e-05
5.49975e-05
4.49979e-05
3.49986e-05
2.4999e-05
1.49889e-05
4.96547e-06
0.000995034
0.000985011
0.000975001
0.000965001
0.000955002
0.000945002
0.000935003
0.000925003
0.000915003
0.000905003
0.000895003
0.000885003
0.000875003
0.000865003
0.000855003
0.000845003
0.000835003
0.000825003
0.000815003
0.000805003
0.000795002
0.000785002
0.000775002
0.000765002
0.000755002
0.000745002
0.000735002
0.000725002
0.000715002
0.000705002
0.000695002
0.000685002
0.000675001
0.000665001
0.000655001
0.000645001
0.000635001
0.000625001
0.000615001
0.000605001
0.000595001
0.000585001
0.000575001
0.000565001
0.000555
0.000545
0.000535
0.000525
0.000515
0.000505
0.000495
0.000485
0.000475
0.000465
0.000455
0.000445
0.000434999
0.000424999
0.000414999
0.000404999
0.000394999
0.000384999
0.000374999
0.000364999
0.000354999
0.000344999
0.000334999
0.000324999
0.000314998
0.000304998
0.000294998
0.000284998
0.000274998
0.000264998
0.000254998
0.000244998
0.000234998
0.000224998
0.000214998
0.000204998
0.000194997
0.000184997
0.000174997
0.000164997
0.000154997
0.000144997
0.000134997
0.000124997
0.000114997
0.000104997
9.49969e-05
8.49969e-05
7.4997e-05
6.49972e-05
5.49975e-05
4.49979e-05
3.49985e-05
2.49988e-05
1.4989e-05
4.96636e-06
0.000995034
0.000985011
0.000975001
0.000965001
0.000955002
0.000945002
0.000935003
0.000925003
0.000915003
0.000905003
0.000895003
0.000885003
0.000875003
0.000865003
0.000855003
0.000845003
0.000835003
0.000825003
0.000815003
0.000805003
0.000795002
0.000785002
0.000775002
0.000765002
0.000755002
0.000745002
0.000735002
0.000725002
0.000715002
0.000705002
0.000695002
0.000685002
0.000675001
0.000665001
0.000655001
0.000645001
0.000635001
0.000625001
0.000615001
0.000605001
0.000595001
0.000585001
0.000575001
0.000565001
0.000555
0.000545
0.000535
0.000525
0.000515
0.000505
0.000495
0.000485
0.000475
0.000465
0.000455
0.000445
0.000434999
0.000424999
0.000414999
0.000404999
0.000394999
0.000384999
0.000374999
0.000364999
0.000354999
0.000344999
0.000334999
0.000324999
0.000314998
0.000304998
0.000294998
0.000284998
0.000274998
0.000264998
0.000254998
0.000244998
0.000234998
0.000224998
0.000214998
0.000204998
0.000194997
0.000184997
0.000174997
0.000164997
0.000154997
0.000144997
0.000134997
0.000124997
0.000114997
0.000104997
9.49969e-05
8.49969e-05
7.4997e-05
6.49972e-05
5.49976e-05
4.4998e-05
3.49986e-05
2.49989e-05
1.49888e-05
4.96581e-06
0.000995034
0.000985011
0.000975001
0.000965001
0.000955002
0.000945002
0.000935003
0.000925003
0.000915003
0.000905003
0.000895003
0.000885003
0.000875003
0.000865003
0.000855003
0.000845003
0.000835003
0.000825003
0.000815003
0.000805003
0.000795002
0.000785002
0.000775002
0.000765002
0.000755002
0.000745002
0.000735002
0.000725002
0.000715002
0.000705002
0.000695002
0.000685002
0.000675001
0.000665001
0.000655001
0.000645001
0.000635001
0.000625001
0.000615001
0.000605001
0.000595001
0.000585001
0.000575001
0.000565001
0.000555
0.000545
0.000535
0.000525
0.000515
0.000505
0.000495
0.000485
0.000475
0.000465
0.000455
0.000445
0.000434999
0.000424999
0.000414999
0.000404999
0.000394999
0.000384999
0.000374999
0.000364999
0.000354999
0.000344999
0.000334999
0.000324999
0.000314998
0.000304998
0.000294998
0.000284998
0.000274998
0.000264998
0.000254998
0.000244998
0.000234998
0.000224998
0.000214998
0.000204998
0.000194997
0.000184997
0.000174997
0.000164997
0.000154997
0.000144997
0.000134997
0.000124997
0.000114997
0.000104997
9.49969e-05
8.49969e-05
7.4997e-05
6.49972e-05
5.49975e-05
4.49979e-05
3.49985e-05
2.49988e-05
1.4989e-05
4.96636e-06
0.000995034
0.000985011
0.000975001
0.000965001
0.000955002
0.000945002
0.000935003
0.000925003
0.000915003
0.000905003
0.000895003
0.000885003
0.000875003
0.000865003
0.000855003
0.000845003
0.000835003
0.000825003
0.000815003
0.000805003
0.000795002
0.000785002
0.000775002
0.000765002
0.000755002
0.000745002
0.000735002
0.000725002
0.000715002
0.000705002
0.000695002
0.000685002
0.000675001
0.000665001
0.000655001
0.000645001
0.000635001
0.000625001
0.000615001
0.000605001
0.000595001
0.000585001
0.000575001
0.000565001
0.000555
0.000545
0.000535
0.000525
0.000515
0.000505
0.000495
0.000485
0.000475
0.000465
0.000455
0.000445
0.000434999
0.000424999
0.000414999
0.000404999
0.000394999
0.000384999
0.000374999
0.000364999
0.000354999
0.000344999
0.000334999
0.000324999
0.000314998
0.000304998
0.000294998
0.000284998
0.000274998
0.000264998
0.000254998
0.000244998
0.000234998
0.000224998
0.000214998
0.000204998
0.000194997
0.000184997
0.000174997
0.000164997
0.000154997
0.000144997
0.000134997
0.000124997
0.000114997
0.000104997
9.49969e-05
8.49969e-05
7.4997e-05
6.49972e-05
5.49975e-05
4.49979e-05
3.49986e-05
2.4999e-05
1.49889e-05
4.9655e-06
0.00099504
0.000985014
0.000975001
0.000965001
0.000955002
0.000945002
0.000935003
0.000925003
0.000915003
0.000905003
0.000895003
0.000885003
0.000875003
0.000865003
0.000855003
0.000845003
0.000835003
0.000825003
0.000815003
0.000805003
0.000795002
0.000785002
0.000775002
0.000765002
0.000755002
0.000745002
0.000735002
0.000725002
0.000715002
0.000705002
0.000695002
0.000685002
0.000675001
0.000665001
0.000655001
0.000645001
0.000635001
0.000625001
0.000615001
0.000605001
0.000595001
0.000585001
0.000575001
0.000565001
0.000555
0.000545
0.000535
0.000525
0.000515
0.000505
0.000495
0.000485
0.000475
0.000465
0.000455
0.000445
0.000434999
0.000424999
0.000414999
0.000404999
0.000394999
0.000384999
0.000374999
0.000364999
0.000354999
0.000344999
0.000334999
0.000324999
0.000314998
0.000304998
0.000294998
0.000284998
0.000274998
0.000264998
0.000254998
0.000244998
0.000234998
0.000224998
0.000214998
0.000204998
0.000194997
0.000184997
0.000174997
0.000164997
0.000154997
0.000144997
0.000134997
0.000124997
0.000114997
0.000104997
9.49969e-05
8.49969e-05
7.4997e-05
6.49973e-05
5.49976e-05
4.4998e-05
3.49986e-05
2.49987e-05
1.49862e-05
4.96039e-06
0.000997495
0.000987516
0.000977511
0.000967512
0.000957512
0.000947513
0.000937514
0.000927514
0.000917514
0.000907514
0.000897514
0.000887514
0.000877514
0.000867514
0.000857514
0.000847514
0.000837514
0.000827514
0.000817514
0.000807514
0.000797514
0.000787514
0.000777513
0.000767513
0.000757513
0.000747513
0.000737513
0.000727513
0.000717513
0.000707513
0.000697513
0.000687513
0.000677513
0.000667513
0.000657512
0.000647512
0.000637512
0.000627512
0.000617512
0.000607512
0.000597512
0.000587512
0.000577512
0.000567512
0.000557512
0.000547512
0.000537511
0.000527511
0.000517511
0.000507511
0.000497511
0.000487511
0.000477511
0.000467511
0.000457511
0.000447511
0.000437511
0.000427511
0.00041751
0.00040751
0.00039751
0.00038751
0.00037751
0.00036751
0.00035751
0.00034751
0.00033751
0.00032751
0.00031751
0.00030751
0.000297509
0.000287509
0.000277509
0.000267509
0.000257509
0.000247509
0.000237509
0.000227509
0.000217509
0.000207509
0.000197509
0.000187509
0.000177508
0.000167508
0.000157508
0.000147508
0.000137508
0.000127508
0.000117508
0.000107508
9.7508e-05
8.7508e-05
7.75082e-05
6.75084e-05
5.75088e-05
4.75095e-05
3.75105e-05
2.75119e-05
1.75103e-05
7.50849e-06
0.00099742
0.000987478
0.000977483
0.000967486
0.000957487
0.000947488
0.000937489
0.000927489
0.000917489
0.000907489
0.000897489
0.000887489
0.000877489
0.000867489
0.000857489
0.000847489
0.000837489
0.000827489
0.000817489
0.000807489
0.000797489
0.000787489
0.000777489
0.000767488
0.000757488
0.000747488
0.000737488
0.000727488
0.000717488
0.000707488
0.000697488
0.000687488
0.000677488
0.000667488
0.000657488
0.000647487
0.000637487
0.000627487
0.000617487
0.000607487
0.000597487
0.000587487
0.000577487
0.000567487
0.000557487
0.000547487
0.000537487
0.000527486
0.000517486
0.000507486
0.000497486
0.000487486
0.000477486
0.000467486
0.000457486
0.000447486
0.000437486
0.000427486
0.000417486
0.000407485
0.000397485
0.000387485
0.000377485
0.000367485
0.000357485
0.000347485
0.000337485
0.000327485
0.000317485
0.000307485
0.000297485
0.000287484
0.000277484
0.000267484
0.000257484
0.000247484
0.000237484
0.000227484
0.000217484
0.000207484
0.000197484
0.000187484
0.000177484
0.000167483
0.000157483
0.000147483
0.000137483
0.000127483
0.000117483
0.000107483
9.74831e-05
8.74831e-05
7.74833e-05
6.74835e-05
5.7484e-05
4.74848e-05
3.74861e-05
2.74883e-05
1.74919e-05
7.5175e-06
0.000997439
0.000987468
0.000977481
0.000967486
0.000957489
0.00094749
0.000937491
0.000927491
0.000917491
0.000907491
0.000897492
0.000887491
0.000877491
0.000867491
0.000857491
0.000847491
0.000837491
0.000827491
0.000817491
0.000807491
0.000797491
0.000787491
0.000777491
0.000767491
0.000757491
0.00074749
0.00073749
0.00072749
0.00071749
0.00070749
0.00069749
0.00068749
0.00067749
0.00066749
0.00065749
0.00064749
0.00063749
0.000627489
0.000617489
0.000607489
0.000597489
0.000587489
0.000577489
0.000567489
0.000557489
0.000547489
0.000537489
0.000527489
0.000517489
0.000507488
0.000497488
0.000487488
0.000477488
0.000467488
0.000457488
0.000447488
0.000437488
0.000427488
0.000417488
0.000407488
0.000397488
0.000387487
0.000377487
0.000367487
0.000357487
0.000347487
0.000337487