/*--------------------------------*- C++ -*----------------------------------*\
| =========                 |                                                 |
| \\      /  F ield         | OpenFOAM: The Open Source CFD Toolbox           |
|  \\    /   O peration     | Version:  2412                                  |
|   \\  /    A nd           | Website:  www.openfoam.com                      |
|    \\/     M anipulation  |                                                 |
\*---------------------------------------------------------------------------*/
FoamFile
{
    version     2.0;
    format      ascii;
    arch        "LSB;label=32;scalar=64";
    class       volScalarField;
    location    "300";
    object      p;
}
// * * * * * * * * * * * * * * * * * * * * * * * * * * * * * * * * * * * * * //

dimensions      [0 2 -2 0 0 0 0];

internalField   nonuniform List<scalar> 
283461
(
0.000942435
0.000942434
0.000942458
0.000942493
0.000942532
0.000942568
0.000107548
0.000134117
0.000141004
0.000141214
0.000138732
0.000134859
0.000130232
0.000125217
0.000119966
0.000114527
0.000108989
0.000103406
9.78207e-05
9.22759e-05
8.6712e-05
8.10592e-05
7.53891e-05
6.98571e-05
6.46093e-05
5.96582e-05
5.50126e-05
5.07175e-05
4.67525e-05
4.30937e-05
3.97076e-05
3.65671e-05
3.36539e-05
3.09508e-05
2.84474e-05
2.61402e-05
2.40174e-05
2.20656e-05
2.02721e-05
1.86273e-05
1.71231e-05
1.57535e-05
1.45128e-05
1.3397e-05
1.24018e-05
1.15239e-05
1.07599e-05
1.01069e-05
9.55957e-06
9.1072e-06
8.71703e-06
8.32272e-06
7.73617e-06
6.6362e-06
4.1509e-08
0.000942416
0.000942423
0.000942431
0.000942455
0.000942494
0.000942545
0.000942613
0.00094272
0.000942782
0.000942826
0.000942851
0.000942826
0.000942831
0.000943009
0.000943261
0.000943845
0.000249381
0.000242351
0.000225941
0.000164162
0.000156686
0.000151499
0.000146527
0.00014157
0.000136461
0.000131206
0.000125847
0.000120407
0.000114851
0.000109251
0.000103607
9.79228e-05
9.22165e-05
8.65159e-05
8.08503e-05
7.5262e-05
6.98066e-05
6.45626e-05
5.9597e-05
5.49339e-05
5.06282e-05
4.66596e-05
4.30006e-05
3.96146e-05
3.64733e-05
3.35581e-05
3.08505e-05
2.83418e-05
2.60324e-05
2.39097e-05
2.19586e-05
2.01657e-05
1.85205e-05
1.7015e-05
1.56428e-05
1.4398e-05
1.32758e-05
1.22709e-05
1.13782e-05
1.05915e-05
9.90254e-06
9.2973e-06
8.74959e-06
8.20187e-06
7.54476e-06
6.56571e-06
4.85459e-06
-1.13501e-08
0.000942414
0.000942414
0.00094242
0.000942441
0.000942478
0.000942527
0.000942585
0.000942661
0.000942719
0.000942757
0.000942781
0.000942771
0.000942793
0.000942931
0.000943152
0.000943608
0.000942752
0.000941961
0.000942519
0.000944174
0.000935259
0.000936618
0.000937191
0.000939763
0.000284146
0.000257914
0.000237743
0.000217167
0.000182197
0.000169367
0.000159682
0.000151809
0.000144928
0.000138547
0.0001326
0.000126789
0.000120942
0.000115155
0.000109434
0.000103704
9.79615e-05
9.22223e-05
8.65036e-05
8.08277e-05
7.52213e-05
6.97476e-05
6.44876e-05
5.94908e-05
5.47893e-05
5.04633e-05
4.64862e-05
4.28256e-05
3.9439e-05
3.62963e-05
3.3378e-05
3.06619e-05
2.81425e-05
2.58298e-05
2.37082e-05
2.17592e-05
1.99677e-05
1.83224e-05
1.6815e-05
1.54392e-05
1.41882e-05
1.30566e-05
1.20379e-05
1.11249e-05
1.03079e-05
9.57376e-06
8.90047e-06
8.25143e-06
7.55787e-06
6.70822e-06
5.52386e-06
3.71323e-06
8.58583e-08
0.00094241
0.000942403
0.000942401
0.000942415
0.000942448
0.000942491
0.00094254
0.000942596
0.000942641
0.000942671
0.000942688
0.000942683
0.000942689
0.000942747
0.000942791
0.000942876
0.000942328
0.000941799
0.000941807
0.000942222
0.000940234
0.000937742
0.000937331
0.000936926
0.000937692
0.000935315
0.000932368
0.000930157
0.000926748
0.000923644
0.000922747
0.000919609
0.000923542
0.000842093
0.000856554
0.000346746
0.00031979
0.000288312
0.00024907
0.000224571
0.000197351
0.000180805
0.000167925
0.000157553
0.000148818
0.000141147
0.000134221
0.000127717
0.000121486
0.000115524
0.000109689
0.000103862
9.80224e-05
9.22023e-05
8.64401e-05
8.07618e-05
7.51577e-05
6.96758e-05
6.44047e-05
5.93527e-05
5.4583e-05
5.02206e-05
4.6226e-05
4.25592e-05
3.91699e-05
3.60256e-05
3.31051e-05
3.03759e-05
2.78395e-05
2.55229e-05
2.34042e-05
2.14589e-05
1.967e-05
1.80249e-05
1.6515e-05
1.51347e-05
1.3876e-05
1.2733e-05
1.1698e-05
1.07625e-05
9.91394e-06
9.13643e-06
8.4039e-06
7.67855e-06
6.8935e-06
5.95766e-06
4.74261e-06
3.06423e-06
3.94414e-07
0.000942385
0.000942365
0.000942371
0.000942405
0.000942446
0.000942491
0.000942536
0.000942573
0.000942597
0.000942607
0.000942599
0.000942584
0.000942575
0.000942535
0.000942472
0.000942087
0.000941666
0.00094144
0.000941261
0.000939918
0.00093828
0.000937434
0.000936621
0.000936275
0.000934413
0.000931805
0.000929313
0.000925914
0.000922033
0.00091865
0.000913194
0.000909431
0.000893682
0.000875151
0.000854855
0.000851609
0.00084271
0.000867149
0.000418486
0.000390673
0.000359542
0.000322064
0.000273364
0.000242799
0.000214322
0.000192989
0.000176557
0.000163552
0.0001529
0.000143822
0.000135791
0.000128595
0.000121978
0.000115776
0.000109859
0.000103956
9.80226e-05
9.2121e-05
8.63247e-05
8.06704e-05
7.50916e-05
6.9623e-05
6.43529e-05
5.92144e-05
5.43419e-05
4.99148e-05
4.58832e-05
4.21984e-05
3.88007e-05
3.56553e-05
3.27383e-05
2.99925e-05
2.74333e-05
2.51146e-05
2.30023e-05
2.10622e-05
1.92769e-05
1.76325e-05
1.61201e-05
1.47353e-05
1.34688e-05
1.23144e-05
1.12644e-05
1.03098e-05
9.43538e-06
8.62549e-06
7.85197e-06
7.08112e-06
6.25675e-06
5.30333e-06
4.14072e-06
2.67894e-06
7.17053e-07
0.000942291
0.000942289
0.000942341
0.000942392
0.000942442
0.000942486
0.000942521
0.000942541
0.000942545
0.000942527
0.00094249
0.000942435
0.000942338
0.000942189
0.000941869
0.000941477
0.00094109
0.000940616
0.000939639
0.000938452
0.000937445
0.000936368
0.000935324
0.000933578
0.00093128
0.00092871
0.000925369
0.000921363
0.000917112
0.000910924
0.000904137
0.000890991
0.000873779
0.000854633
0.000838632
0.000814265
0.000792492
0.000709665
0.000568687
0.000483802
0.000417168
0.000359297
0.000301853
0.000264875
0.000232208
0.000205695
0.000185351
0.000169629
0.000157016
0.000146436
0.000137201
0.000129225
0.00012218
0.000115748
0.000109862
0.000103943
9.792e-05
9.19305e-05
8.61153e-05
8.05333e-05
7.50146e-05
6.9565e-05
6.42803e-05
5.90471e-05
5.4067e-05
4.95328e-05
4.54399e-05
4.17228e-05
3.831e-05
3.5167e-05
3.22708e-05
2.951e-05
2.69253e-05
2.46088e-05
2.25068e-05
2.05722e-05
1.87909e-05
1.71481e-05
1.56331e-05
1.42449e-05
1.29711e-05
1.18073e-05
1.07463e-05
9.78061e-06
8.88988e-06
8.06313e-06
7.27894e-06
6.49324e-06
5.67229e-06
4.75527e-06
3.69305e-06
2.4623e-06
9.96039e-07
0.00094213
0.000942237
0.000942323
0.00094239
0.000942445
0.000942485
0.000942508
0.000942509
0.000942484
0.00094243
0.000942345
0.000942212
0.000942017
0.000941709
0.000941318
0.000940863
0.00094029
0.000939442
0.000938418
0.000937354
0.000936161
0.000934831
0.000933053
0.000930803
0.000928127
0.000924749
0.000920579
0.000915656
0.000909104
0.000901023
0.000889116
0.000873991
0.00085507
0.000833965
0.000806697
0.000772225
0.00070418
0.000604992
0.000523461
0.000452763
0.000389169
0.000328751
0.000286008
0.000249049
0.000218283
0.000193934
0.000175679
0.000161224
0.000149012
0.000138266
0.000129346
0.000121831
0.000115119
0.000109491
0.000103702
9.76236e-05
9.15486e-05
8.5777e-05
8.0382e-05
7.5025e-05
6.95976e-05
6.4193e-05
5.88615e-05
5.38262e-05
4.91254e-05
4.49291e-05
4.1146e-05
3.76901e-05
3.45358e-05
3.16771e-05
2.89116e-05
2.63121e-05
2.40081e-05
2.19219e-05
1.99916e-05
1.82142e-05
1.65738e-05
1.50562e-05
1.36662e-05
1.23867e-05
1.12154e-05
1.0149e-05
9.18279e-06
8.29733e-06
7.47731e-06
6.69869e-06
5.93161e-06
5.14736e-06
4.30454e-06
3.36602e-06
2.35835e-06
1.2703e-06
0.000941987
0.000942091
0.000942231
0.000942333
0.000942411
0.000942467
0.0009425
0.000942505
0.000942477
0.000942412
0.000942308
0.000942151
0.00094193
0.000941618
0.000941218
0.000940731
0.000940122
0.000939323
0.000938363
0.000937282
0.000936034
0.000934584
0.000932772
0.000930525
0.0009278
0.000924413
0.00092021
0.000915063
0.000908433
0.00090002
0.00088862
0.000873981
0.000854885
0.000831539
0.000801795
0.000763407
0.000706952
0.00062935
0.000555537
0.00048521
0.000420708
0.000360356
0.00031219
0.000268814
0.000232021
0.000202506
0.000181979
0.000165727
0.000151655
0.000138826
0.000128717
0.000120841
0.000113849
0.000108802
0.000103273
9.71396e-05
9.09412e-05
8.52483e-05
8.01726e-05
7.5089e-05
6.96768e-05
6.41136e-05
5.86574e-05
5.3522e-05
4.86153e-05
4.42817e-05
4.04139e-05
3.68867e-05
3.37042e-05
3.09092e-05
2.817e-05
2.55963e-05
2.33235e-05
2.12552e-05
1.93208e-05
1.75431e-05
1.59054e-05
1.43863e-05
1.29984e-05
1.17144e-05
1.05302e-05
9.47633e-06
8.53976e-06
7.66163e-06
6.86001e-06
6.11483e-06
5.39873e-06
4.67894e-06
3.92703e-06
3.11858e-06
2.28109e-06
1.5393e-06
0.000941809
0.000942082
0.000942252
0.000942373
0.00094246
0.000942513
0.000942529
0.000942505
0.000942437
0.000942322
0.000942151
0.000941914
0.000941594
0.000941188
0.000940685
0.000940064
0.000939289
0.000938361
0.00093728
0.000936013
0.000934518
0.000932696
0.000930467
0.000927757
0.000924417
0.000920282
0.000915167
0.00090867
0.000900377
0.000889451
0.000875239
0.000856081
0.000831954
0.000801338
0.000763598
0.000713584
0.000648428
0.000581325
0.000510943
0.000445864
0.000383184
0.000332139
0.000283996
0.000243505
0.000212295
0.00018909
0.000170938
0.000154486
0.000138428
0.000126761
0.000119024
0.000111983
0.000107781
0.000102445
9.61748e-05
8.9817e-05
8.44152e-05
7.99122e-05
7.53192e-05
6.99624e-05
6.43166e-05
5.88225e-05
5.32997e-05
4.79042e-05
4.34052e-05
3.94929e-05
3.58826e-05
3.26623e-05
2.9932e-05
2.7273e-05
2.48101e-05
2.25861e-05
2.05204e-05
1.85602e-05
1.67746e-05
1.51411e-05
1.36234e-05
1.22422e-05
1.09561e-05
9.79965e-06
8.76479e-06
7.83075e-06
6.99017e-06
6.23772e-06
5.54514e-06
4.89244e-06
4.25452e-06
3.60566e-06
2.9242e-06
2.26011e-06
1.75998e-06
0.000941591
0.000941862
0.000942117
0.000942311
0.000942449
0.000942539
0.000942577
0.000942565
0.000942501
0.000942383
0.000942205
0.000941959
0.000941635
0.000941225
0.000940718
0.000940098
0.00093934
0.000938435
0.000937368
0.000936109
0.000934614
0.000932814
0.000930632
0.000927985
0.000924748
0.00092076
0.000915825
0.000909609
0.000901678
0.000891346
0.000877761
0.000858898
0.000835921
0.000805592
0.000768901
0.000722154
0.000666325
0.000606226
0.000532277
0.000465497
0.000400265
0.000349193
0.00029908
0.000254149
0.000221487
0.000197132
0.000178633
0.00015845
0.000137498
0.000124164
0.000115903
0.000108115
0.000105044
0.000101023
9.52696e-05
8.92511e-05
8.47185e-05
8.04434e-05
7.62125e-05
7.05937e-05
6.45328e-05
5.8894e-05
5.27573e-05
4.67312e-05
4.23927e-05
3.86036e-05
3.47592e-05
3.14416e-05
2.88e-05
2.62244e-05
2.3909e-05
2.17733e-05
1.96962e-05
1.76927e-05
1.58947e-05
1.42706e-05
1.27626e-05
1.14036e-05
1.01174e-05
8.98252e-06
7.98739e-06
7.0971e-06
6.3117e-06
5.6172e-06
4.99456e-06
4.42074e-06
3.87442e-06
3.33125e-06
2.77018e-06
2.28932e-06
1.91847e-06
0.000941373
0.000941845
0.000942192
0.000942415
0.000942563
0.00094264
0.00094265
0.000942597
0.000942483
0.000942305
0.000942057
0.000941734
0.000941325
0.000940822
0.000940211
0.000939472
0.000938592
0.000937551
0.000936319
0.000934856
0.000933106
0.000930999
0.000928456
0.000925365
0.000921577
0.000916904
0.000911058
0.000903635
0.000894062
0.000881517
0.000864388
0.000843809
0.00081344
0.000775648
0.000733139
0.000687442
0.000636222
0.000553651
0.000482177
0.000405389
0.000343705
0.000295579
0.000255018
0.000223858
0.00020126
0.000186833
0.000165558
0.000138603
0.000114856
0.000109736
0.000105533
0.000103772
0.000100784
9.43995e-05
8.79278e-05
8.44384e-05
8.08457e-05
7.75727e-05
7.14765e-05
6.45357e-05
5.88619e-05
5.18011e-05
4.52959e-05
4.18579e-05
3.78337e-05
3.3461e-05
3.00547e-05
2.74767e-05
2.49552e-05
2.28334e-05
2.08119e-05
1.87359e-05
1.66786e-05
1.4852e-05
1.32543e-05
1.17772e-05
1.04513e-05
9.19659e-06
8.11679e-06
7.15902e-06
6.32985e-06
5.62348e-06
5.00941e-06
4.47233e-06
3.98899e-06
3.53942e-06
3.1e-06
2.64871e-06
2.3054e-06
2.06638e-06
0.000941054
0.000941394
0.000941976
0.000942339
0.000942577
0.000942707
0.000942751
0.000942719
0.000942615
0.000942443
0.0009422
0.000941882
0.000941481
0.000940988
0.000940393
0.000939678
0.000938829
0.000937825
0.000936637
0.000935229
0.000933552
0.000931546
0.000929135
0.000926221
0.000922664
0.00091829
0.000912837
0.00090594
0.000897114
0.000885454
0.000870234
0.000852268
0.000825788
0.00078946
0.000753615
0.00072475
0.000698063
0.00061686
0.000526627
0.000410405
0.000342162
0.00029307
0.000253302
0.000223978
0.000205397
0.00020105
0.000102712
0.000103473
0.000103236
0.0001024
9.92646e-05
9.35813e-05
8.79957e-05
8.4435e-05
8.05551e-05
7.68659e-05
7.05682e-05
6.39126e-05
5.93408e-05
5.25021e-05
4.56645e-05
4.16784e-05
3.68069e-05
3.19673e-05
2.85757e-05
2.5921e-05
2.35316e-05
2.16918e-05
1.9732e-05
1.75521e-05
1.53791e-05
1.35671e-05
1.20749e-05
1.06815e-05
9.41131e-06
8.1906e-06
7.1771e-06
6.3041e-06
5.56698e-06
4.95478e-06
4.43392e-06
3.99203e-06
3.60502e-06
3.25325e-06
2.91436e-06
2.56787e-06
2.33817e-06
2.25916e-06
0.00094023
0.00094135
0.000942123
0.000942551
0.000942768
0.000942861
0.000942858
0.000942772
0.000942612
0.000942379
0.00094207
0.000941682
0.000941206
0.000940633
0.000939949
0.000939138
0.000938181
0.00093705
0.000935714
0.00093413
0.000932245
0.000929992
0.000927283
0.000923987
0.000919941
0.000914909
0.000908552
0.000900506
0.000889764
0.000876882
0.000862171
0.000841674
0.000805281
0.000767141
0.000740759
0.000721968
0.0006781
0.000622173
0.000101189
0.000101831
0.000102444
9.85451e-05
9.21067e-05
8.63434e-05
8.39687e-05
8.09289e-05
7.82335e-05
7.03348e-05
6.28355e-05
6.03021e-05
5.19748e-05
4.33937e-05
4.06438e-05
3.66555e-05
3.18443e-05
2.72583e-05
2.43908e-05
2.2075e-05
2.0247e-05
1.82075e-05
1.58561e-05
1.37288e-05
1.20364e-05
1.07041e-05
9.4639e-06
8.31342e-06
7.17426e-06
6.252e-06
5.47253e-06
4.83671e-06
4.32914e-06
3.91072e-06
3.56882e-06
3.27819e-06
3.02025e-06
2.77493e-06
2.52609e-06
2.38931e-06
2.47181e-06
0.000940636
0.000941874
0.000942536
0.000942838
0.000942982
0.000943011
0.000942947
0.000942803
0.000942584
0.000942291
0.00094192
0.000941467
0.000940922
0.000940275
0.000939509
0.000938608
0.000937546
0.000936295
0.000934818
0.00093307
0.000930991
0.000928506
0.000925484
0.000921769
0.000917136
0.000911241
0.000903929
0.000894078
0.00088256
0.000869194
0.000850602
0.000816694
0.000778645
0.000756869
0.000736367
0.000713889
0.000100731
0.000100626
9.75399e-05
9.27142e-05
8.81378e-05
8.44196e-05
8.03589e-05
7.61673e-05
7.01027e-05
6.38336e-05
5.8874e-05
5.16845e-05
4.40685e-05
4.06207e-05
3.63449e-05
3.08169e-05
2.55176e-05
2.16359e-05
1.98388e-05
1.85047e-05
1.65957e-05
1.41976e-05
1.21128e-05
1.04096e-05
9.28559e-06
8.23794e-06
7.19326e-06
6.14693e-06
5.32725e-06
4.663e-06
4.15535e-06
3.76813e-06
3.46051e-06
3.21845e-06
3.01822e-06
2.84391e-06
2.6793e-06
2.51662e-06
2.46022e-06
2.68692e-06
0.000940836
0.00094193
0.000942595
0.00094293
0.000943113
0.000943173
0.000943133
0.000943009
0.000942808
0.000942533
0.000942184
0.000941758
0.000941247
0.000940643
0.00093993
0.000939093
0.00093811
0.000936955
0.000935597
0.000933998
0.000932109
0.000929873
0.000927153
0.000923796
0.00091958
0.000914068
0.000907528
0.000898592
0.000887997
0.000877587
0.000858065
0.000820273
0.000780072
0.000754646
0.000748848
3.97225e-05
3.87003e-05
3.5534e-05
3.11998e-05
2.64231e-05
1.85216e-05
1.73991e-05
1.60799e-05
1.41444e-05
1.21068e-05
1.02173e-05
8.82692e-06
7.90494e-06
7.02713e-06
6.12856e-06
5.23528e-06
4.50438e-06
3.95224e-06
3.57249e-06
3.30486e-06
3.10446e-06
2.95275e-06
2.82846e-06
2.72178e-06
2.62036e-06
2.52481e-06
2.52891e-06
2.86207e-06
0.00094073
0.000941783
0.000942571
0.000942988
0.000943228
0.000943329
0.00094332
0.000943219
0.000943039
0.000942786
0.000942463
0.000942068
0.000941597
0.00094104
0.000940388
0.000939623
0.000938727
0.000937677
0.000936446
0.000935006
0.000933318
0.00093135
0.000928951
0.000925968
0.000922162
0.00091686
0.000911522
0.000904965
0.000897879
0.000892683
0.000886114
1.27406e-05
1.37919e-05
1.33232e-05
1.20753e-05
1.03943e-05
8.40784e-06
7.39895e-06
6.6473e-06
5.92974e-06
5.18909e-06
4.43586e-06
3.77602e-06
3.35728e-06
3.10962e-06
2.95574e-06
2.84978e-06
2.77052e-06
2.70413e-06
2.64723e-06
2.59069e-06
2.53919e-06
2.59286e-06
2.99138e-06
0.000940703
0.000941701
0.000942539
0.000943025
0.000943326
0.000943474
0.000943498
0.000943424
0.000943268
0.00094304
0.000942745
0.000942385
0.000941957
0.000941454
0.000940867
0.000940182
0.000939381
0.000938443
0.000937346
0.000936069
0.000934586
0.0009329
0.000930823
0.000928156
0.000924557
0.0009186
0.000914391
0.000908111
0.000904917
0.000901853
1.14571e-05
1.19014e-05
1.15375e-05
1.04576e-05
8.76679e-06
7.13249e-06
6.32556e-06
5.59614e-06
4.96321e-06
4.33416e-06
3.70451e-06
3.1982e-06
2.92553e-06
2.79448e-06
2.7311e-06
2.69602e-06
2.66831e-06
2.6426e-06
2.61474e-06
2.57909e-06
2.54388e-06
2.64362e-06
3.05698e-06
0.000940258
0.000941177
0.000942324
0.000942978
0.000943377
0.000943589
0.000943657
0.000943614
0.000943484
0.000943282
0.000943018
0.000942694
0.000942312
0.000941867
0.000941352
0.000940754
0.000940057
0.000939242
0.000938289
0.000937183
0.000935921
0.000934561
0.000932884
0.000930646
0.000927297
0.000919929
0.000916274
0.000912269
0.000908407
1.06933e-05
1.08033e-05
1.03651e-05
9.35032e-06
7.69234e-06
6.38598e-06
5.44434e-06
4.66084e-06
4.09215e-06
3.57064e-06
3.08047e-06
2.7837e-06
2.6568e-06
2.62024e-06
2.62111e-06
2.63371e-06
2.64004e-06
2.63292e-06
2.61282e-06
2.57679e-06
2.53128e-06
2.66055e-06
3.01766e-06
0.000939657
0.000941467
0.000942722
0.00094335
0.000943662
0.000943787
0.000943779
0.000943676
0.000943501
0.000943266
0.00094298
0.000942646
0.000942262
0.000941823
0.000941319
0.000940736
0.000940056
0.000939258
0.000938328
0.000937292
0.000936281
0.000935042
0.000933256
0.000930061
0.000920105
0.00091504
0.000914828
1.02834e-05
1.03104e-05
9.71137e-06
8.69995e-06
6.88547e-06
5.70247e-06
4.53019e-06
3.81193e-06
3.33107e-06
2.9573e-06
2.65118e-06
2.52608e-06
2.51154e-06
2.5493e-06
2.60322e-06
2.64469e-06
2.66267e-06
2.65591e-06
2.62878e-06
2.57713e-06
2.49918e-06
2.60919e-06
2.86642e-06
0.000939681
0.00094213
0.000943241
0.000943694
0.000943884
0.000943912
0.000943835
0.000943684
0.000943477
0.000943227
0.00094294
0.000942616
0.000942255
0.000941848
0.000941386
0.000940848
0.000940214
0.000939459
0.000938674
0.00093807
0.000937451
0.000936558
0.000934283
1.01887e-05
1.04248e-05
9.23876e-06
7.40658e-06
5.47285e-06
4.70086e-06
3.83702e-06
3.16595e-06
2.72067e-06
2.50444e-06
2.39239e-06
2.40283e-06
2.47478e-06
2.57093e-06
2.65574e-06
2.7041e-06
2.71487e-06
2.69518e-06
2.65224e-06
2.5796e-06
2.47089e-06
2.53095e-06
2.73399e-06
0.000939898
0.000942225
0.000943309
0.000943769
0.000943973
0.000944016
0.000943952
0.000943819
0.000943636
0.000943418
0.000943174
0.000942909
0.000942626
0.000942323
0.000941997
0.000941637
0.000941229
0.000940735
0.000940362
0.000940377
0.000940754
0.000941357
6.64328e-06
5.65628e-06
4.58994e-06
4.15335e-06
3.44879e-06
2.70858e-06
2.23663e-06
2.1695e-06
2.21296e-06
2.33548e-06
2.49048e-06
2.63451e-06
2.73713e-06
2.77869e-06
2.76918e-06
2.72828e-06
2.668e-06
2.57547e-06
2.44201e-06
2.44646e-06
2.58953e-06
0.000939874
0.000942239
0.00094334
0.000943812
0.000944023
0.00094407
0.000944013
0.000943891
0.000943725
0.000943533
0.000943326
0.000943111
0.000942895
0.000942681
0.000942471
0.000942259
0.000942015
0.00094168
0.000941528
0.000941787
0.000942443
0.00094309
5.95267e-06
4.93532e-06
4.24394e-06
3.82592e-06
3.1087e-06
2.45013e-06
1.81888e-06
1.88546e-06
2.06114e-06
2.29495e-06
2.52525e-06
2.70746e-06
2.82395e-06
2.84332e-06
2.79698e-06
2.72868e-06
2.65884e-06
2.55618e-06
2.40893e-06
2.32889e-06
2.36359e-06
0.000939464
0.000942134
0.000943328
0.000943812
0.00094402
0.000944062
0.000944004
0.000943887
0.00094373
0.000943557
0.000943377
0.000943201
0.000943034
0.000942883
0.000942753
0.000942636
0.000942494
0.000942406
0.000942322
0.000942543
0.000943076
0.000943632
0.000944004
4.39589e-06
3.92282e-06
3.31994e-06
2.63558e-06
2.07388e-06
1.45472e-06
1.6605e-06
1.94747e-06
2.26784e-06
2.55688e-06
2.77187e-06
2.90424e-06
2.8748e-06
2.76128e-06
2.6582e-06
2.60496e-06
2.51986e-06
2.395e-06
2.1856e-06
2.05304e-06
0.000938636
0.000941917
0.00094327
0.000943768
0.000943958
0.000943981
0.00094391
0.000943785
0.000943634
0.000943473
0.000943314
0.000943166
0.000943038
0.000942933
0.00094286
0.000942803
0.000942717
0.000942712
0.000942705
0.000942876
0.000943224
0.000943462
0.000943626
0.000943591
3.38051e-06
2.92119e-06
2.50513e-06
1.77386e-06
1.08982e-06
1.45195e-06
1.83826e-06
2.22488e-06
2.5639e-06
2.81336e-06
2.98872e-06
2.85094e-06
2.59288e-06
2.44441e-06
2.47825e-06
2.47535e-06
2.47656e-06
2.03989e-06
1.63809e-06
0.000941006
0.00094063
0.000941677
0.000942959
0.000943543
0.000943792
0.000943864
0.000943825
0.00094372
0.000943573
0.000943423
0.000943269
0.000943126
0.000943003
0.000942909
0.000942847
0.000942825
0.000942824
0.000942812
0.00094285
0.000942909
0.00094304
0.000943252
0.000943407
0.000943501
0.000943532
2.50095e-06
2.2132e-06
1.42679e-06
1.00103e-06
1.39658e-06
1.77675e-06
2.16046e-06
2.52748e-06
2.82941e-06
3.15031e-06
2.67955e-06
2.02791e-06
1.87086e-06
2.21563e-06
2.46148e-06
2.89796e-06
1.96594e-06
1.07522e-06
0.00094093
0.000941951
0.000942788
0.000943322
0.000943582
0.000943674
0.000943651
0.000943553
0.000943411
0.000943249
0.000943086
0.000942932
0.000942802
0.000942704
0.000942646
0.000942632
0.000942666
0.000942725
0.000942786
0.000942874
0.000942979
0.000943121
0.000943276
0.000943391
0.000943452
0.000943495
9.7036e-07
8.76137e-07
1.26337e-06
1.58733e-06
1.91726e-06
2.29366e-06
2.68085e-06
3.28694e-06
1.93922e-06
9.70364e-07
7.90499e-07
1.66737e-06
2.3247e-06
3.59599e-06
1.65778e-06
4.16803e-07
0.000941578
0.000942551
0.000943096
0.000943328
0.000943416
0.000943395
0.000943292
0.000943138
0.000942959
0.000942774
0.000942594
0.00094244
0.000942322
0.000942251
0.000942235
0.00094228
0.000942382
0.000942514
0.000942663
0.000942827
0.000942977
0.000943138
0.00094324
0.00094333
0.000943426
8.10902e-07
1.15098e-06
1.42356e-06
1.68766e-06
2.08049e-06
2.66332e-06
4.21828e-06
-1.19105e-06
9.65424e-07
2.49113e-06
5.18602e-06
0.000943348
0.000942654
0.000943026
0.000943068
0.000943033
0.000942931
0.000942765
0.00094256
0.00094234
0.000942123
0.000941927
0.000941767
0.000941658
0.000941613
0.000941644
0.000941758
0.000941944
0.000942167
0.000942435
0.000942723
0.000942926
0.000943134
0.000943229
0.00094327
0.000939236
0.000941543
0.000942264
0.000942346
0.000942246
0.000942048
0.000941801
0.000941538
0.000941285
0.000941062
0.000940889
0.000940782
0.000940761
0.000940841
0.000941035
0.000941328
0.00094167
0.000942083
0.000942531
0.000942744
0.000943045
0.000943335
0.000943349
0.000939883
0.000941011
0.00094161
0.000941576
0.000941411
0.000941158
0.000940856
0.000940541
0.00094024
0.000939978
0.000939777
0.000939659
0.000939649
0.000939776
0.00094006
0.000940481
0.000940962
0.000941552
0.000942248
0.000942562
0.00094305
0.000943515
0.000943906
0.000941069
0.00094104
0.000940693
0.000940407
0.000940085
0.000939719
0.000939339
0.000938978
0.000938663
0.00093842
0.000938274
0.000938253
0.000938396
0.000938724
0.000939225
0.000939766
0.000940408
0.000941068
0.000941487
0.000942066
0.000935172
0.00093827
0.000939041
0.000939038
0.000938766
0.000938366
0.000937923
0.000937493
0.000937114
0.000936815
0.000936624
0.000936571
0.00093669
0.000937002
0.000937518
0.000938208
0.00093897
0.000939862
0.000940596
0.000941789
0.000933766
0.000936676
0.000937728
0.000937711
0.000937353
0.000936852
0.00093631
0.00093579
0.000935335
0.000934976
0.000934743
0.000934666
0.000934779
0.00093511
0.000935708
0.000936609
0.000937564
0.000938728
0.000939266
0.00093522
0.000936407
0.000936832
0.000936453
0.000935851
0.000935175
0.000934494
0.000933866
0.00093333
0.00093292
0.000932664
0.0009326
0.000932766
0.000933209
0.000934007
0.000935152
0.000936464
0.000938021
0.000937659
0.000940576
0.000937314
0.000936263
0.000935211
0.000934217
0.000933302
0.000932451
0.000931699
0.000931084
0.000930634
0.000930381
0.000930357
0.000930598
0.00093114
0.000932034
0.000933174
0.000934464
0.000935753
0.000936335
0.000932761
0.000933474
0.000933222
0.000932167
0.000931112
0.000930111
0.00092924
0.000928548
0.000928071
0.000927835
0.000927864
0.000928169
0.000928756
0.000929615
0.00093062
0.000931596
0.000933792
0.000936201
0.000940063
0.000933244
0.000932056
0.000930202
0.000928739
0.000927478
0.00092644
0.000925655
0.000925149
0.000924941
0.000925038
0.000925433
0.000926102
0.000927008
0.00092803
0.000928662
0.000931467
0.000923031
0.000927626
0.000927094
0.000925752
0.000924356
0.000923172
0.00092229
0.000921753
0.000921576
0.00092175
0.000922247
0.000923016
0.000924025
0.00092537
0.000927077
0.000932709
0.000923765
0.0009268
0.000924818
0.000922807
0.00092088
0.000919403
0.000918355
0.000917757
0.000917598
0.000917845
0.000918427
0.000919228
0.00092007
0.00092089
0.000921387
0.000933671
0.00093226
0.000923989
0.000919864
0.000916875
0.00091496
0.000913693
0.000913016
0.000912885
0.000913252
0.00091403
0.000915063
0.000915965
0.000916271
0.000915867
0.000943123
0.000922891
0.000916282
0.000912038
0.000909594
0.000908116
0.000907351
0.000907252
0.000907797
0.00090894
0.000910582
0.000912248
0.000913239
0.000912435
0.000907646
0.00089791
0.000903839
0.000903688
0.000902382
0.000901225
0.000900503
0.000900441
0.000901179
0.000902847
0.000905583
0.000908922
0.000912861
0.000914303
0.000911074
0.000889152
0.000895252
0.000896176
0.000894929
0.000893513
0.000892518
0.00089222
0.000892821
0.00089455
0.000897719
0.000901585
0.000908009
0.00091133
0.000913632
0.000891936
0.00089207
0.000890113
0.000887421
0.000885062
0.000883408
0.000882571
0.000882731
0.000884298
0.000888111
0.00089435
0.000905132
0.000907323
0.000910351
0.000894615
0.000885168
0.000879621
0.000875733
0.000873152
0.000871526
0.000870811
0.000871309
0.0008738
0.000879873
0.000891358
0.000911675
0.000879404
0.000872692
0.000868733
0.000864476
0.000861494
0.000859257
0.000857483
0.000856082
0.000855
0.000854966
0.000852159
0.000908524
0.000871224
0.000860331
0.000853102
0.00084914
0.000846301
0.000843521
0.000840153
0.000835285
0.000827624
0.000810409
0.000782079
0.000782486
0.000826613
0.000835526
0.000835568
0.000834424
0.000832762
0.000830331
0.00082693
0.000822225
0.000815822
0.000803074
0.000783381
0.000781561
0.000794193
0.000808699
0.000816369
0.000818875
0.000818953
0.000817127
0.000813498
0.000807815
0.00079972
0.000785586
0.000770981
0.000764715
0.000751337
0.000773234
0.000789381
0.000800383
0.000804925
0.000806279
0.000805178
0.000801972
0.000796722
0.000789392
0.000778293
0.000766075
0.000754308
0.000748153
0.000735676
0.000730274
0.000741024
0.000767722
0.000785199
0.000792177
0.0007947
0.000794261
0.000791584
0.000787035
0.000780837
0.000772428
0.00076245
0.000751311
0.000747936
0.000734186
0.000726356
0.000644069
0.000642441
0.000720145
0.000755953
0.000773779
0.000781564
0.000784409
0.000784054
0.000781408
0.000776914
0.000770794
0.000762852
0.000752352
0.000743752
0.000739434
0.000716221
0.000701006
0.000686817
0.000710406
0.000724856
0.000724918
0.000714352
0.000692388
0.000696878
0.000709911
0.000742029
0.000759811
0.000769525
0.000774341
0.000775761
0.000774619
0.000771465
0.000766589
0.000760136
0.000752078
0.000741394
0.000732258
0.000719237
0.000696978
0.000686644
0.000674905
0.00066286
0.000757147
0.000775023
0.000771544
0.000758582
0.000747146
0.00074928
0.000746031
0.000739713
0.000729485
0.000731194
0.000738107
0.000751119
0.00076008
0.000765449
0.000767797
0.000767693
0.000765579
0.000761769
0.000756443
0.000749691
0.000741523
0.000731222
0.00072154
0.000709861
0.000692288
0.000676855
0.00066302
0.000649857
0.000635111
0.00063454
0.00045051
0.000450689
0.000450867
0.000450924
0.000450937
0.000801193
0.000819564
0.000809686
0.000788804
0.000792861
0.000785661
0.000774678
0.000767162
0.000764897
0.000760513
0.000755637
0.000750045
0.000748638
0.000750689
0.000755742
0.000759454
0.000761386
0.000761459
0.000759822
0.00075665
0.000752093
0.000746254
0.000739202
0.000730976
0.000721131
0.000711281
0.000699361
0.000679633
0.000664021
0.000650088
0.000639122
0.000632982
0.000633702
0.000450316
0.00045057
0.000450793
0.000450894
0.000450959
0.000999252
0.00102256
0.000852505
0.000874346
0.000861422
0.000835421
0.000835047
0.000821388
0.000806919
0.000803656
0.000796238
0.000787793
0.000780273
0.000774847
0.000769439
0.000764404
0.000759677
0.000757037
0.000756318
0.000757049
0.000757321
0.000756652
0.000754815
0.000751767
0.000747522
0.00074211
0.000735542
0.000727798
0.00071881
0.000708197
0.000696839
0.000683412
0.000666059
0.000649558
0.000633905
0.000625284
0.00062349
0.000628498
0.000449118
0.000449873
0.000450404
0.000450759
0.000450969
0.00045113
0.000994181
0.00098523
0.000941248
0.000899143
0.000890233
0.000871011
0.000851295
0.000843181
0.000831256
0.000819323
0.000811932
0.000803536
0.000795114
0.000787392
0.000780816
0.000774704
0.000769154
0.000764154
0.000760371
0.000757684
0.000755742
0.000753655
0.000751036
0.000747646
0.000743367
0.000738137
0.000731922
0.000724685
0.00071637
0.000706855
0.000695813
0.000683525
0.000668513
0.000651331
0.000632391
0.000618772
0.000611845
0.000607813
0.000579767
0.000522282
0.000507467
0.000508973
0.000445527
0.000446867
0.000447567
0.00044845
0.000449001
0.00044975
0.000450359
0.000450822
0.000451202
0.000451517
0.000994859
0.000975288
0.000943165
0.000912383
0.000894337
0.000876589
0.000859751
0.000848377
0.000836847
0.00082585
0.00081705
0.000807952
0.000799109
0.000790951
0.000783609
0.000776844
0.000770673
0.000765069
0.000760245
0.000756095
0.000752369
0.000748602
0.000744502
0.000739858
0.000734532
0.000728428
0.000721475
0.000713607
0.000704742
0.000694732
0.000683344
0.000670668
0.000655815
0.000639909
0.000623123
0.000608377
0.000596319
0.000585542
0.00055318
0.000517776
0.00050478
0.000503234
0.000490203
0.000481039
0.000484327
0.000444149
0.00044935
0.000450429
0.000450334
0.000449043
0.000446763
0.000445941
0.000447296
0.000448291
0.000449002
0.000449744