/*--------------------------------*- C++ -*----------------------------------*\
| =========                 |                                                 |
| \\      /  F ield         | OpenFOAM: The Open Source CFD Toolbox           |
|  \\    /   O peration     | Version:  2412                                  |
|   \\  /    A nd           | Website:  www.openfoam.com                      |
|    \\/     M anipulation  |                                                 |
\*---------------------------------------------------------------------------*/
FoamFile
{
    version     2.0;
    format      ascii;
    arch        "LSB;label=32;scalar=64";
    class       surfaceScalarField;
    location    "300";
    object      phi;
}
// * * * * * * * * * * * * * * * * * * * * * * * * * * * * * * * * * * * * * //

dimensions      [0 3 -1 0 0 0 0];

oriented        oriented;

internalField   nonuniform List<scalar> 
9663
(
5.45268e-18
2.30362e-24
4.1283e-23
5.45269e-18
-8.27383e-25
-2.16306e-23
5.45268e-18
1.62334e-24
7.08187e-24
5.45269e-18
3.78164e-25
-5.82735e-24
5.45269e-18
5.05637e-25
-6.63021e-25
5.45269e-18
4.41533e-25
-6.05727e-26
5.45269e-18
2.63831e-25
-1.27729e-24
5.45269e-18
2.09028e-25
-4.71092e-25
5.45269e-18
1.41123e-25
-3.93704e-25
5.45269e-18
9.83963e-26
-4.5703e-25
5.45269e-18
8.377e-26
-3.37757e-25
5.45269e-18
6.95702e-26
-2.88215e-25
5.45269e-18
6.1103e-26
-2.51513e-25
5.45269e-18
5.32839e-26
-2.18903e-25
5.4527e-18
4.66324e-26
-1.86278e-25
5.4527e-18
4.10746e-26
-1.65144e-25
5.4527e-18
3.64806e-26
-1.45213e-25
5.4527e-18
3.30758e-26
-1.2985e-25
5.4527e-18
2.97632e-26
-1.21091e-25
5.4527e-18
2.73684e-26
-1.09313e-25
5.4527e-18
2.51494e-26
-1.02796e-25
5.4527e-18
2.29252e-26
-9.2518e-26
5.4527e-18
2.09382e-26
-8.84903e-26
5.4527e-18
1.94365e-26
-7.9688e-26
5.4527e-18
1.79328e-26
-7.54388e-26
5.4527e-18
1.71101e-26
-6.82196e-26
5.4527e-18
1.62827e-26
-6.43423e-26
5.4527e-18
1.60158e-26
-6.48436e-26
5.4527e-18
1.54002e-26
-6.15069e-26
5.4527e-18
1.47565e-26
-5.49443e-26
5.4527e-18
1.36453e-26
-4.87158e-26
5.4527e-18
1.33398e-26
-4.23954e-26
5.4527e-18
1.22462e-26
-4.29266e-26
5.4527e-18
1.18996e-26
-3.63597e-26
5.4527e-18
1.03572e-26
-3.56035e-26
5.4527e-18
1.02581e-26
-3.52724e-26
5.4527e-18
1.00973e-26
-3.97977e-26
5.4527e-18
1.07842e-26
-3.35195e-26
5.4527e-18
9.27574e-27
-3.08275e-26
5.4527e-18
9.07387e-27
-2.34801e-26
5.4527e-18
7.55576e-27
-2.30938e-26
5.4527e-18
8.13974e-27
-2.69123e-26
5.4527e-18
7.6974e-27
-2.38827e-26
5.4527e-18
7.0156e-27
-1.49919e-26
5.4527e-18
5.36039e-27
-9.30168e-27
5.4527e-18
5.23281e-27
-1.85023e-27
5.4527e-18
3.80932e-27
-7.53277e-27
5.4527e-18
4.18804e-27
-2.10659e-28
5.4527e-18
2.11327e-27
-4.32474e-27
5.4527e-18
2.9071e-27
-4.61483e-27
5.4527e-18
2.63791e-27
-1.49557e-26
5.4527e-18
4.31166e-27
-6.44074e-27
5.4527e-18
2.75117e-27
-8.16501e-27
5.4527e-18
3.10001e-27
3.02847e-27
5.4527e-18
9.764e-28
-2.73691e-27
5.4527e-18
2.00411e-27
-1.80332e-27
5.4527e-18
1.72294e-27
-1.45565e-26
5.4527e-18
3.53144e-27
-3.88308e-27
5.4527e-18
2.01663e-27
-7.72738e-27
5.4527e-18
2.74679e-27
4.22587e-27
5.4527e-18
1.57299e-28
-1.04164e-27
5.4527e-18
7.42015e-28
2.84266e-27
5.4527e-18
-6.5394e-28
-5.49725e-27
5.4527e-18
1.09347e-27
-2.14553e-27
5.4527e-18
9.17598e-29
-8.58492e-27
5.4527e-18
1.88219e-27
-4.52238e-27
5.4527e-18
7.79333e-28
-1.0347e-26
5.4527e-18
2.34801e-27
-6.94239e-27
5.4527e-18
1.2268e-27
-1.24704e-26
5.4527e-18
2.69334e-27
-9.32837e-27
5.4527e-18
1.55083e-27
-1.43694e-26
5.4527e-18
2.98755e-27
-1.07418e-26
5.4527e-18
2.20701e-27
-1.72592e-26
5.4527e-18
4.30053e-27
-1.73951e-26
5.4527e-18
4.42438e-27
-2.58984e-26
5.4527e-18
5.97206e-27
-1.58783e-26
5.4527e-18
3.9067e-27
-1.59109e-26
5.4527e-18
3.89685e-27
-5.12804e-27
5.4527e-18
1.53805e-27
-9.44287e-27
5.4527e-18
2.2522e-27
-9.43742e-27
5.4527e-18
2.30568e-27
-1.7742e-26
5.4527e-18
3.56121e-27
-8.30808e-27
5.4527e-18
1.80085e-27
-7.45266e-27
5.4527e-18
1.5394e-27
3.10349e-27
5.4527e-18
-7.56502e-28
-8.38426e-28
5.4527e-18
-4.42904e-28
-3.76675e-28
5.4527e-18
-3.50488e-28
-8.41742e-27
5.4527e-18
9.12443e-28
1.26242e-27
5.4527e-18
-6.8784e-28
1.10781e-27
5.4527e-18
-5.96682e-28
1.10328e-26
5.4527e-18
-2.85186e-27
7.81544e-27
5.4527e-18
-2.75269e-27
1.03973e-26
5.4527e-18
-3.68636e-27
3.57718e-27
5.4527e-18
-2.18684e-27
6.23823e-27
5.4527e-18
-2.68712e-27
3.44809e-27
5.4527e-18
-1.72559e-27
3.29256e-27
5.4527e-18
-1.96843e-27
7.00368e-27
5.4527e-18
-1.69628e-27
3.21969e-27
5.4527e-18
-8.81863e-28
-9.90362e-27
-1.20858e-29
-4.66399e-27
7.7234e-18
-1.6013e-24
6.14343e-23
7.72342e-18
1.31641e-24
-4.50528e-23
7.72342e-18
-6.63935e-25
1.75983e-23
7.72342e-18
3.17066e-25
-5.50214e-24
7.72343e-18
1.72658e-25
-6.96126e-25
7.72343e-18
8.69749e-26
7.13254e-25
7.72343e-18
1.11718e-25
-1.24307e-24
7.72343e-18
5.38706e-26
-2.64198e-25
7.72343e-18
3.73584e-26
-2.28617e-25
7.72343e-18
2.47314e-26
-3.82474e-25
7.72343e-18
2.4159e-26
-2.68049e-25
7.72343e-18
2.21357e-26
-2.18056e-25
7.72343e-18
2.24361e-26
-1.95037e-25
7.72343e-18
1.99773e-26
-1.67769e-25
7.72343e-18
1.94178e-26
-1.43386e-25
7.72343e-18
1.70209e-26
-1.24602e-25
7.72343e-18
1.5757e-26
-1.11429e-25
7.72343e-18
1.36709e-26
-9.59559e-26
7.72343e-18
1.23723e-26
-9.21516e-26
7.72343e-18
1.13438e-26
-8.10055e-26
7.72343e-18
1.00264e-26
-7.83067e-26
7.72343e-18
9.31311e-27
-6.85018e-26
7.72343e-18
8.2631e-27
-6.84614e-26
7.72343e-18
8.21792e-27
-6.02391e-26
7.72343e-18
7.50741e-27
-5.93213e-26
7.72344e-18
7.74625e-27
-5.13098e-26
7.72344e-18
6.78281e-27
-5.29084e-26
7.72344e-18
7.51399e-27
-4.79202e-26
7.72344e-18
6.84222e-27
-4.96847e-26
7.72344e-18
7.31133e-27
-4.09778e-26
7.72344e-18
6.65656e-27
-3.78198e-26
7.72344e-18
6.8708e-27
-3.23435e-26
7.72344e-18
6.3503e-27
-3.31996e-26
7.72344e-18
6.01116e-27
-2.69167e-26
7.72344e-18
4.80387e-27
-2.76944e-26
7.72344e-18
4.83699e-27
-2.64719e-26
7.72344e-18
5.15262e-27
-3.24444e-26
7.72344e-18
5.60151e-27
-2.59947e-26
7.72344e-18
4.76034e-27
-2.45246e-26
7.72344e-18
4.3186e-27
-1.56091e-26
7.72344e-18
2.61628e-27
-2.09494e-26
7.72344e-18
3.55853e-27
-1.46832e-26
7.72344e-18
2.75102e-27
-2.13017e-26
7.72344e-18
3.55843e-27
-8.43043e-27
7.72344e-18
2.59207e-27
-7.64316e-27
7.72344e-18
2.71324e-27
1.23836e-27
7.72344e-18
2.27905e-27
-5.16825e-27
7.72344e-18
1.66116e-27
2.85341e-27
7.72344e-18
3.82993e-28
-3.21737e-27
7.72344e-18
-1.94856e-29
-1.84468e-28
7.72344e-18
9.91219e-28
-1.30014e-26
7.72344e-18
1.69109e-27
-3.01628e-27
7.72344e-18
1.51189e-27
-6.06475e-27
7.72344e-18
8.81301e-28
5.61686e-27
7.72344e-18
-5.03172e-28
-3.22644e-27
7.72344e-18
-7.85545e-28
2.85328e-27
7.72344e-18
3.01883e-28
-1.37603e-26
7.72344e-18
1.3161e-27
-2.83747e-28
7.72344e-18
1.1534e-27
-6.55338e-27
7.72344e-18
1.00752e-27
7.17449e-27
7.72344e-18
-1.53859e-28
-4.51109e-27
7.72344e-18
-5.63973e-28
5.25325e-27
7.72344e-18
-8.58799e-28
-8.82176e-27
7.72344e-18
-6.66292e-28
1.23224e-27
7.72344e-18
-5.52249e-28
-1.06165e-26
7.72344e-18
-4.10798e-28
-7.0989e-28
7.72344e-18
-2.52178e-28
-1.21345e-26
7.72344e-18
-2.29133e-28
-2.84793e-27
7.72344e-18
-2.70982e-29
-1.37958e-26
7.72344e-18
-5.89738e-29
-5.30745e-27
7.72344e-18
5.1233e-29
-1.48999e-26
7.72344e-18
-4.19058e-29
-7.10591e-27
7.72344e-18
-1.78797e-28
-1.73556e-26
7.72344e-18
5.15255e-28
-1.19522e-26
7.72344e-18
1.51175e-27
-2.39069e-26
7.72344e-18
2.89681e-27
-1.2198e-26
7.72344e-18
2.21592e-27
-1.33603e-26
7.72344e-18
1.78276e-27
-1.9893e-27
7.72344e-18
-1.71604e-28
-1.00752e-26
7.72344e-18
1.04283e-28
-6.04739e-27
7.72344e-18
6.8574e-28
-1.72634e-26
7.72344e-18
2.01242e-27
-6.74652e-27
7.72344e-18
1.437e-27
-5.6775e-27
7.72344e-18
7.17308e-28
3.96874e-27
7.72344e-18
-1.12731e-27
-1.81072e-27
7.72344e-18
-1.09558e-27
1.44961e-27
7.72344e-18
-6.05034e-28
-8.80503e-27
7.72344e-18
7.31939e-28
1.85915e-27
7.72344e-18
6.77886e-28
6.67803e-28
7.72344e-18
2.12062e-28
1.05366e-26
7.72344e-18
-1.33725e-27
5.22101e-27
7.72344e-18
-1.67633e-27
1.04533e-26
7.72344e-18
-2.36308e-27
7.70724e-28
7.72344e-18
-1.81026e-27
7.33148e-27
7.72344e-18
-2.22973e-27
2.83071e-28
7.72344e-18
-2.20799e-27
3.48123e-27
7.72344e-18
-3.47163e-27
8.61366e-27
7.72344e-18
-2.00635e-27
-4.27046e-27
7.72344e-18
-2.74032e-27
-1.62449e-26
-1.03838e-27
9.45886e-28
5.45268e-18
4.02493e-23
5.45269e-18
-2.11679e-23
5.45268e-18
7.93789e-24
5.45269e-18
-5.21048e-24
5.45269e-18
-2.95428e-25
5.45269e-18
1.15347e-25
5.45269e-18
-1.16555e-24
5.45269e-18
-3.5222e-25
5.45269e-18
-3.47366e-25
5.45269e-18
-4.23046e-25
5.45269e-18
-3.03313e-25
5.45269e-18
-2.46221e-25
5.45269e-18
-2.1347e-25
5.45269e-18
-1.82598e-25
5.4527e-18
-1.51805e-25
5.4527e-18
-1.36257e-25
5.4527e-18
-1.14932e-25
5.4527e-18
-1.07134e-25
5.4527e-18
-9.14202e-26
5.4527e-18
-8.85965e-26
5.4527e-18
-7.76044e-26
5.4527e-18
-7.66274e-26
5.4527e-18
-6.82927e-26
5.4527e-18
-6.63423e-26
5.4527e-18
-5.94655e-26
5.4527e-18
-5.74589e-26
5.4527e-18
-5.40054e-26
5.4527e-18
-5.36524e-26
5.4527e-18
-5.00757e-26
5.4527e-18
-4.51768e-26
5.4527e-18
-3.83694e-26
5.4527e-18
-3.60027e-26
5.4527e-18
-3.27994e-26
5.4527e-18
-3.06328e-26
5.4527e-18
-2.95413e-26
5.4527e-18
-3.35082e-26
5.4527e-18
-3.17885e-26
5.4527e-18
-3.01345e-26
5.4527e-18
-2.28606e-26
5.4527e-18
-2.19758e-26
5.4527e-18
-2.04125e-26
5.4527e-18
-2.40503e-26
5.4527e-18
-1.86049e-26
5.4527e-18
-1.38193e-26
5.4527e-18
-3.24249e-27
5.4527e-18
-3.69438e-27
5.4527e-18
-5.69432e-28
5.4527e-18
-1.05331e-27
5.4527e-18
-6.89145e-28
5.4527e-18
-1.06246e-26
5.4527e-18
-7.60885e-27
5.4527e-18
-9.64903e-27
5.4527e-18
4.64023e-28
5.4527e-18
-2.12287e-27
5.4527e-18
1.99456e-27
5.4527e-18
-1.1549e-26
5.4527e-18
-5.18264e-27
5.4527e-18
-8.84418e-27
5.4527e-18
3.2799e-27
5.4527e-18
-1.3692e-27
5.4527e-18
4.57312e-27
5.4527e-18
-3.75753e-27
5.4527e-18
-2.76885e-28
5.4527e-18
-7.28977e-27
5.4527e-18
-3.33343e-27
5.4527e-18
-9.50448e-27
5.4527e-18
-5.45143e-27
5.4527e-18
-1.11579e-26
5.4527e-18
-7.76485e-27
5.4527e-18
-1.28629e-26
5.4527e-18
-9.19832e-27
5.4527e-18
-1.47477e-26
5.4527e-18
-1.2654e-26
5.4527e-18
-2.28835e-26
5.4527e-18
-1.70944e-26
5.4527e-18
-1.71116e-26
5.4527e-18
-6.35504e-27
5.4527e-18
-7.6367e-27
5.4527e-18
-5.64523e-27
5.4527e-18
-1.43441e-26
5.4527e-18
-1.11306e-26
5.4527e-18
-9.02492e-27
5.4527e-18
-3.35147e-28
5.4527e-18
4.70581e-28
5.4527e-18
1.51065e-27
5.4527e-18
-6.27041e-27
5.4527e-18
-3.03111e-27
5.4527e-18
-1.1555e-27
5.4527e-18
7.48668e-27
5.4527e-18
7.6589e-27
5.4527e-18
1.04782e-26
5.4527e-18
5.48912e-27
5.4527e-18
6.23306e-27
5.4527e-18
2.19554e-27
5.4527e-18
5.29463e-27
5.4527e-18
-1.30472e-27
5.4527e-18
7.03624e-27
5.4527e-18
-9.76985e-28
5.4527e-18
-1.25678e-26
-2.46955e-27
6.77808e-18
3.37623e-23
3.64889e-23
6.7781e-18
-1.8568e-23
-1.73869e-23
6.77809e-18
5.85859e-24
8.50396e-24
6.7781e-18
-4.43772e-24
-3.12149e-24
6.7781e-18
-2.80698e-25
7.95394e-25
6.7781e-18
1.68363e-25
8.63626e-25
6.7781e-18
-7.1746e-25
-2.33566e-25
6.7781e-18
-8.74998e-26
1.5147e-25
6.7781e-18
-1.13335e-25
1.25018e-25
6.7781e-18
-2.10134e-25
-3.5403e-26
6.7781e-18
-1.47114e-25
3.73176e-26
6.7781e-18
-1.36518e-25
1.50582e-26
6.7781e-18
-1.25454e-25
2.2852e-26
6.7781e-18
-1.109e-25
1.04516e-26
6.7781e-18
-9.4788e-26
1.8272e-26
6.7781e-18
-8.32798e-26
1.117e-26
6.7781e-18
-7.189e-26
7.98943e-27
6.77811e-18
-6.07319e-26
6.38276e-27
6.77811e-18
-5.47648e-26
-7.58238e-27
6.77811e-18
-4.43563e-26
-1.52204e-27
6.77811e-18
-3.98092e-26
-1.36067e-26
6.77811e-18
-3.39114e-26
-3.35694e-27
6.77811e-18
-3.37087e-26
-1.52573e-26
6.77811e-18
-3.0067e-26
-3.31819e-27
6.77811e-18
-2.93892e-26
-1.0354e-26
6.77811e-18
-2.62991e-26
1.5412e-27
6.77811e-18
-2.42206e-26
-7.86964e-27
6.77811e-18
-2.71049e-26
-8.67016e-28
6.77811e-18
-2.46553e-26
-9.76492e-27
6.77811e-18
-2.18976e-26
2.06375e-27
6.77811e-18
-1.84191e-26
-3.3208e-27
6.77811e-18
-1.4413e-26
5.51783e-27
6.77811e-18
-1.59301e-26
-5.11404e-27
6.77811e-18
-1.14735e-26
4.55754e-27
6.77811e-18
-1.24359e-26
-4.2001e-27
6.77811e-18
-1.37906e-26
4.63453e-27
6.77811e-18
-1.89624e-26
-5.74943e-27
6.77811e-18
-1.53622e-26
8.82135e-27
6.77811e-18
-1.53234e-26
1.66583e-28
6.77811e-18
-9.97389e-27
1.30978e-26
6.77811e-18
-7.82336e-27
-3.86395e-27
6.77811e-18
-1.12786e-26
5.44538e-27
6.77811e-18
-7.04903e-27
-7.88528e-27
6.77811e-18
-3.51427e-27
1.14418e-26
6.77811e-18
-5.09351e-28
2.21281e-29
6.77811e-18
3.74045e-27
1.30688e-26
6.77811e-18
2.32043e-28
-5.92693e-27
6.77811e-18
6.41978e-27
7.98614e-27
6.77811e-18
3.8336e-27
-6.01213e-27
6.77811e-18
1.70923e-27
6.85791e-27
6.77811e-18
-7.60524e-27
-9.62182e-27
6.77811e-18
-2.79382e-27
1.212e-26
6.77811e-18
-4.55579e-27
-3.67936e-27
6.77811e-18
4.32085e-27
1.43627e-26
6.77811e-18
2.09976e-27
-6.90691e-27
6.77811e-18
1.98889e-27
9.97894e-27
6.77811e-18
-7.66758e-27
-1.36885e-26
6.77811e-18
-7.72573e-28
1.29694e-26
6.77811e-18
-2.68871e-27
-7.76736e-27
6.77811e-18
6.59888e-27
1.42108e-26
6.77811e-18
4.67694e-27
-1.06789e-26
6.77811e-18
7.63776e-27
7.85614e-27
6.77811e-18
2.81055e-27
-1.40826e-26
6.77811e-18
4.84136e-27
4.93953e-27
6.77811e-18
1.10273e-27
-1.33016e-26
6.77811e-18
3.43424e-27
5.38238e-27
6.77811e-18
3.64411e-30
-1.24319e-26
6.77811e-18
1.776e-27
5.67726e-27
6.77811e-18
-1.56824e-27
-1.21531e-26
6.77811e-18
-4.45968e-29
5.34879e-27
6.77811e-18
-3.45368e-27
-1.10302e-26
6.77811e-18
-1.35815e-27
6.67895e-27
6.77811e-18
-5.83392e-27
-1.03644e-26
6.77811e-18
-7.41255e-27
8.14159e-27
6.77811e-18
-1.44463e-26
-1.13824e-26
6.77811e-18
-7.98975e-27
1.33473e-26
6.77811e-18
-8.6374e-27
-4.29761e-27
6.77811e-18
-4.2341e-28
1.35523e-26
6.77811e-18
-1.5899e-27
-8.25147e-27
6.77811e-18
-2.60836e-27
7.47417e-27
6.77811e-18
-9.06673e-27
-1.13565e-26
6.77811e-18
-3.91932e-27
1.02611e-26
6.77811e-18
-3.96665e-27
-3.86104e-27
6.77811e-18
3.78108e-27
1.0144e-26
6.77811e-18
2.64185e-27
-8.63109e-27
6.77811e-18
2.07249e-27
4.58101e-27
6.77811e-18
-3.71153e-27
-1.17983e-26
6.77811e-18
1.55333e-27
8.60375e-27
6.77811e-18
6.68573e-28
-5.79127e-27
6.77811e-18
8.85894e-27
8.24027e-27
6.77811e-18
9.01394e-27
-1.15688e-26
6.77811e-18
1.14772e-26
1.68276e-27
6.77811e-18
7.54137e-27
-1.62613e-26
6.77811e-18
8.99085e-27
4.88421e-28
6.77811e-18
7.24878e-27
-1.29189e-26
6.77811e-18
4.77517e-27
1.31138e-27
6.77811e-18
7.32838e-27
-6.25234e-27
6.77811e-18
1.51442e-27
6.90269e-27
6.77811e-18
-5.22898e-27
-1.1387e-26
-1.94945e-27
3.17438e-27
1.56758e-17
1.6933e-23
2.23023e-23
1.56759e-17
-2.33492e-23
-5.16057e-23
1.56759e-17
1.19969e-23
2.70469e-23
1.56759e-17
1.59615e-24
-4.47962e-24
1.56759e-17
8.50182e-25
2.02513e-24
1.56759e-17
1.57833e-24
4.09034e-24
1.56759e-17
6.6936e-25
8.37832e-25
1.56759e-17
6.7535e-25
1.39714e-24
1.56759e-17
4.85224e-25
1.23173e-24
1.56759e-17
3.03576e-25
7.63506e-25
1.56759e-17
2.50283e-25
6.89606e-25
1.56759e-17
2.14677e-25
6.04476e-25
1.56759e-17
1.81599e-25
5.13764e-25
1.56759e-17
1.61508e-25
4.41869e-25
1.56759e-17
1.40002e-25
3.8656e-25
1.56759e-17
1.27277e-25
3.36862e-25
1.56759e-17
1.11744e-25
2.91953e-25
1.56759e-17
1.05659e-25
2.58097e-25
1.56759e-17
9.45249e-26
2.22353e-25
1.56759e-17
9.00387e-26
2.00465e-25
1.56759e-17
8.17643e-26
1.7157e-25
1.56759e-17
7.64946e-26
1.60399e-25
1.56759e-17
6.74078e-26
1.41352e-25
1.56759e-17
6.31757e-26
1.36015e-25
1.56759e-17
5.57775e-26
1.21196e-25
1.56759e-17
5.45551e-26
1.18313e-25
1.56759e-17
4.69008e-26
1.0503e-25
1.56759e-17
5.15948e-26
1.08185e-25
1.56759e-17
4.52545e-26
1.0038e-25
1.56759e-17
4.60724e-26
1.00215e-25
1.56759e-17
4.10024e-26
8.67969e-26
1.56759e-17
3.89e-26
8.08954e-26
1.56759e-17
3.68508e-26
7.23882e-26
1.56759e-17
3.54673e-26
7.22385e-26
1.56759e-17
3.12029e-26
6.51094e-26
1.56759e-17
3.14006e-26
6.90152e-26
1.56759e-17
2.97501e-26
6.86909e-26
1.56759e-17
2.97568e-26
7.40893e-26
1.56759e-17
2.61087e-26
6.54457e-26
1.56759e-17
2.62274e-26
6.3101e-26
1.56759e-17
1.83205e-26
4.69447e-26
1.56759e-17
2.94795e-26
5.49316e-26
1.56759e-17
1.86328e-26
4.21782e-26
1.56759e-17
2.11351e-26
4.33147e-26
1.56759e-17
1.47451e-26
2.56598e-26
1.56759e-17
1.30297e-26
2.38036e-26
1.56759e-17
1.33167e-26
1.2133e-26
1.56759e-17
1.10493e-26
1.57084e-26
1.56759e-17
8.2267e-27
5.59796e-27
1.56759e-17
9.70653e-27
1.6684e-26
1.56759e-17
9.10044e-27
1.88994e-26
1.56759e-17
9.8935e-27
3.11872e-26
1.56759e-17
9.91507e-27
1.98328e-26
1.56759e-17
5.72196e-27
2.06016e-26
1.56759e-17
3.89316e-27
3.88972e-27
1.56759e-17
7.05147e-27
1.62706e-26
1.56759e-17
7.05887e-27
1.5059e-26
1.56759e-17
8.20026e-27
2.76564e-26
1.56759e-17
8.94208e-27
1.09053e-26
1.56759e-17
5.78382e-27
1.36194e-26
1.56759e-17
6.80504e-28
-8.9461e-27
1.56759e-17
2.73181e-27
2.12361e-27
1.56759e-17
-3.95077e-28
-9.94804e-27
1.56759e-17
4.70805e-27
6.78851e-27
1.56759e-17
2.0452e-27
-3.48692e-27
1.56759e-17
6.93666e-27
1.18547e-26
1.56759e-17
3.05189e-27
8.83126e-28
1.56759e-17
8.36406e-27
1.58144e-26
1.56759e-17
3.85095e-27
5.40141e-27
1.56759e-17
9.1327e-27
1.99975e-26
1.56759e-17
4.87347e-27
1.0727e-26
1.56759e-17
8.96125e-27
2.35661e-26
1.56759e-17
6.20255e-27
1.66058e-26
1.56759e-17
1.35576e-26
3.47465e-26
1.56759e-17
1.26654e-26
3.46858e-26
1.56759e-17
1.44966e-26
4.67368e-26
1.56759e-17
1.31264e-26
3.11118e-26
1.56759e-17
9.86043e-27
2.93497e-26
1.56759e-17
5.01529e-27
1.01682e-26
1.56759e-17
8.22848e-27
1.96716e-26
1.56759e-17
7.10675e-27
1.8246e-26
1.56759e-17
7.80134e-27
2.80049e-26
1.56759e-17
7.79491e-27
1.48089e-26
1.56759e-17
2.55325e-27
9.98302e-27
1.56759e-17
-3.83792e-29
-6.6924e-27
1.56759e-17
6.71267e-28
8.34658e-29
1.56759e-17
1.15142e-27
-2.48753e-28
1.56759e-17
7.78866e-28
6.90156e-27
1.56759e-17
5.52357e-28
-5.74065e-27
1.56759e-17
-2.77343e-27
-9.69611e-27
1.56759e-17
-5.72721e-27
-2.72476e-26
1.56759e-17
-5.7184e-27
-2.28057e-26
1.56759e-17
-7.038e-27
-3.18622e-26
1.56759e-17
-4.3982e-27
-1.90467e-26
1.56759e-17
-7.07227e-27
-2.50171e-26
1.56759e-17
-4.87396e-27
-1.71758e-26
1.56759e-17
-3.67845e-27
-1.01728e-26
1.56759e-17
-1.73993e-26
-1.81544e-26
1.56759e-17
-1.22489e-26
-2.32746e-26
2.69791e-27
-5.22151e-27
1.83948e-17
-1.65443e-23
-1.13417e-23
1.8395e-17
2.60722e-23
-1.34571e-23
1.83949e-17
-8.52843e-24
3.07875e-23
1.83949e-17
1.35322e-24
-1.10546e-23
1.83949e-17
1.60522e-24
4.77611e-24
1.83949e-17
1.69e-25
5.22296e-24
1.83949e-17
5.68393e-25
5.55963e-25
1.83949e-17
3.0616e-25
1.69106e-24
1.83949e-17
1.44399e-25
1.40779e-24
1.83949e-17
1.59603e-25
8.78887e-25
1.83949e-17
1.26247e-25
7.85738e-25
1.83949e-17
1.15998e-25
7.05413e-25
1.83949e-17
1.156e-25
5.94379e-25
1.83949e-17
1.03176e-25
5.06059e-25
1.83949e-17
9.72368e-26
4.48708e-25
1.83949e-17
8.17617e-26
3.79063e-25
1.83949e-17
7.94301e-26
3.43627e-25
1.83949e-17
6.21172e-26
2.85061e-25
1.83949e-17
6.6307e-26
2.7002e-25
1.83949e-17
5.20616e-26
2.21093e-25
1.83949e-17
5.38784e-26
2.12684e-25
1.83949e-17
4.08318e-26
1.77655e-25
1.83949e-17
4.45321e-26
1.76944e-25
1.83949e-17
3.62433e-26
1.5274e-25
1.83949e-17
3.88041e-26
1.51182e-25
1.83949e-17
3.18534e-26
1.31596e-25
1.83949e-17
3.48662e-26
1.34686e-25
1.83949e-17
2.99695e-26
1.22702e-25
1.83949e-17
3.39292e-26
1.24936e-25
1.83949e-17
2.92204e-26
1.10057e-25
1.83949e-17
3.05094e-26
1.06438e-25
1.83949e-17
2.70489e-26
9.06063e-26
1.83949e-17
2.86786e-26
9.2061e-26
1.83949e-17
2.28735e-26
7.93937e-26
1.83949e-17
2.14872e-26
8.20945e-26
1.83949e-17
1.60791e-26
7.35435e-26
1.83949e-17
2.51735e-26
8.75736e-26
1.83949e-17
2.08296e-26
7.79948e-26
1.83949e-17
2.37609e-26
8.33573e-26
1.83949e-17
1.36754e-26
6.17509e-26
1.83949e-17
1.71486e-26
6.67521e-26
1.83949e-17
7.40602e-27
4.88727e-26
1.83949e-17
1.87893e-26
6.11292e-26
1.83949e-17
1.05689e-26
3.99168e-26
1.83949e-17
1.82249e-26
4.43065e-26
1.83949e-17
7.06803e-27
1.6081e-26
1.83949e-17
1.50187e-26
2.8162e-26
1.83949e-17
4.1578e-27
8.06261e-27
1.83949e-17
7.184e-27
2.08235e-26
1.83949e-17
-6.42828e-27
4.90104e-27
1.83949e-17
1.19615e-26
3.63847e-26
1.83949e-17
2.21742e-27
1.81748e-26
1.83949e-17
1.51829e-26
3.93248e-26
1.83949e-17
-1.75107e-27
6.33676e-27
1.83949e-17
7.45219e-27
2.51244e-26
1.83949e-17
-1.26376e-26
-1.646e-27
1.83949e-17
1.35241e-26
3.73465e-26
1.83949e-17
-9.22429e-28
1.02894e-26
1.83949e-17
1.68378e-26
3.51729e-26
1.83949e-17
-3.35243e-27
-4.4188e-27
1.83949e-17
1.13634e-26
1.76496e-26
1.83949e-17
-9.35733e-27
-1.51377e-26
1.83949e-17
7.96609e-27
1.4959e-26
1.83949e-17
-8.58414e-27
-1.00464e-26
1.83949e-17
8.09392e-27
1.94949e-26
1.83949e-17
-7.09562e-27
-4.7201e-27
1.83949e-17
8.89521e-27
2.46054e-26
1.83949e-17
-5.85833e-27
2.18816e-28
1.83949e-17
9.04354e-27
2.85992e-26
1.83949e-17
-4.21131e-27
5.54264e-27
1.83949e-17
9.14709e-27
3.25146e-26
1.83949e-17
-3.65726e-27
1.0806e-26
1.83949e-17
8.62675e-27
3.79959e-26
1.83949e-17
-4.10899e-27
2.06964e-26
1.83949e-17
1.66639e-26
5.47335e-26
1.83949e-17
8.53689e-27
3.41972e-26
1.83949e-17
1.87076e-26
4.88394e-26
1.83949e-17
3.27305e-27
1.77298e-26
1.83949e-17
9.10898e-27
2.86705e-26
1.83949e-17
-4.37904e-27
9.80532e-27
1.83949e-17
1.22779e-26
3.39588e-26
1.83949e-17
6.4017e-27
2.03549e-26
1.83949e-17
1.23647e-26
2.66769e-26
1.83949e-17
-3.30696e-29
2.23145e-27
1.83949e-17
1.98435e-27
4.38361e-27
1.83949e-17
-1.03118e-26
-1.03959e-26
1.83949e-17
5.78083e-27
1.13809e-26
1.83949e-17
-3.24187e-28
-1.11003e-27
1.83949e-17
8.51e-27
6.3291e-27
1.83949e-17
-3.9638e-27
-2.04058e-26
1.83949e-17
-4.28465e-28
-1.45833e-26
1.83949e-17
-1.31702e-26
-3.64772e-26
1.83949e-17
-3.58154e-27
-1.90885e-26
1.83949e-17
-1.37788e-26
-3.44444e-26
1.83949e-17
-2.88652e-27
-1.03205e-26
1.83949e-17
-1.32501e-26
-2.96264e-26
1.83949e-17
-9.89421e-27
2.38974e-27
1.83949e-17
-1.12823e-27
-7.44796e-27
1.83949e-17
1.10191e-27
-1.29675e-26
-5.3285e-27
-2.01369e-26
1.56758e-17
-3.22227e-23
2.30931e-23
1.56759e-17
2.02299e-23
-4.77544e-23
1.56759e-17
-4.97564e-24
2.37769e-23
1.56759e-17
5.23849e-24
-6.68e-24
1.56759e-17
1.13566e-24
1.49734e-24
1.56759e-17
5.01828e-25
3.40749e-24
1.56759e-17
1.246e-24
2.79734e-27
1.56759e-17
4.41171e-25
9.02509e-25
1.56759e-17
3.85942e-25
7.91419e-25
1.56759e-17
3.80951e-25
4.30039e-25
1.56759e-17
2.8637e-25
3.96077e-25
1.56759e-17
2.42019e-25
3.71429e-25
1.56759e-17
2.27129e-25
2.95739e-25
1.56759e-17
1.99554e-25
2.70395e-25
1.56759e-17
1.74218e-25
2.30735e-25
1.56759e-17
1.57279e-25
2.11483e-25
1.56759e-17
1.34069e-25
1.78025e-25
1.56759e-17
1.24577e-25
1.62288e-25
1.56759e-17
1.02596e-25
1.35416e-25
1.56759e-17
9.82763e-26
1.18628e-25
1.56759e-17
8.0107e-26
1.0412e-25
1.56759e-17
8.06725e-26
9.24694e-26
1.56759e-17
6.79922e-26
8.52592e-26
1.56759e-17
6.97176e-26
7.77593e-26
1.56759e-17
5.99685e-26
7.42807e-26
1.56759e-17
6.17056e-26
6.85258e-26
1.56759e-17
5.53797e-26
6.99309e-26
1.56759e-17
5.89478e-26
6.16496e-26
1.56759e-17
5.36214e-26
6.28543e-26
1.56759e-17
5.28441e-26
5.70134e-26
1.56759e-17
4.46072e-26
5.58649e-26
1.56759e-17
4.5319e-26
5.00793e-26
1.56759e-17
3.92798e-26
4.82899e-26
1.56759e-17
3.88243e-26
4.35967e-26
1.56759e-17
3.31058e-26
4.38579e-26
1.56759e-17
4.01091e-26
4.37941e-26
1.56759e-17
3.70168e-26
4.37395e-26
1.56759e-17
4.04465e-26
4.46694e-26
1.56759e-17
2.98461e-26
4.23425e-26
1.56759e-17
3.15234e-26
3.64645e-26
1.56759e-17
2.18857e-26
3.76463e-26
1.56759e-17
3.01211e-26
2.82888e-26
1.56759e-17
2.00188e-26
2.92163e-26
1.56759e-17
2.34458e-26
2.1713e-26
1.56759e-17
8.98213e-27
2.08966e-26
1.56759e-17
1.50095e-26
1.81683e-26
1.56759e-17
4.30096e-27
1.33684e-26
1.56759e-17
8.02399e-27
9.86479e-27
1.56759e-17
-1.2215e-27
6.32119e-27
1.56759e-17
1.39329e-26
1.53643e-26
1.56759e-17
7.56474e-27
1.27045e-26
1.56759e-17
1.9607e-26
2.01037e-26
1.56759e-17
2.43361e-27
1.38424e-26
1.56759e-17
1.04525e-26
1.33544e-26
1.56759e-17
-6.30259e-27
7.56349e-27
1.56759e-17
1.47005e-26
1.44033e-26
1.56759e-17
2.34344e-27
8.46001e-27
1.56759e-17
1.91894e-26
1.59775e-26
1.56759e-17
-2.36659e-27
9.29299e-27
1.56759e-17
1.05048e-26
7.98713e-27
1.56759e-17
-8.82671e-27
2.01497e-27
1.56759e-17
6.50661e-27
9.54454e-28
1.56759e-17
-6.87061e-27
-2.21624e-27
1.56759e-17
8.10803e-27
2.73769e-27
1.56759e-17
-3.65254e-27
6.44977e-29
1.56759e-17
1.04322e-26
5.87628e-27
1.56759e-17
-1.1563e-27
3.65975e-27
1.56759e-17
1.20838e-26
8.31062e-27
1.56759e-17
1.44638e-27
6.80377e-27
1.56759e-17
1.36171e-26
1.03094e-26
1.56759e-17
3.31324e-27
8.21485e-27
1.56759e-17
1.51674e-26
1.26611e-26
1.56759e-17
6.00609e-27
1.38046e-26
1.56759e-17
2.5377e-26
2.12207e-26
1.56759e-17
1.62901e-26
2.24418e-26
1.56759e-17
2.81814e-26
2.37577e-26
1.56759e-17
1.02957e-26
2.11451e-26
1.56759e-17
1.66104e-26
1.54195e-26
1.56759e-17
1.92129e-27
1.41481e-26
1.56759e-17
1.68261e-26
1.15293e-26
1.56759e-17
9.51127e-27
1.27898e-26
1.56759e-17
1.76111e-26
1.20896e-26
1.56759e-17
2.91971e-27
9.47808e-27
1.56759e-17
5.35465e-27
3.92061e-27
1.56759e-17
-7.347e-27
2.10454e-27
1.56759e-17
5.80289e-27
2.70491e-28
1.56759e-17
-1.06757e-27
8.6329e-31
1.56759e-17
7.6758e-27
1.29111e-27
1.56759e-17
-6.68552e-27
-1.61234e-27
1.56759e-17
-2.68984e-27
-6.65393e-27
1.56759e-17
-1.68184e-26
-1.12596e-26
1.56759e-17
-8.47072e-27
-1.49628e-26
1.56759e-17
-1.79563e-26
-1.62528e-26
1.56759e-17
-7.10369e-27
-1.48524e-26
1.56759e-17
-1.65932e-26
-1.13828e-26
1.56759e-17
-4.11697e-27
-1.40905e-26
1.56759e-17
-1.70509e-26
3.36132e-28
1.56759e-17
-2.75828e-27
-2.50618e-26
1.56759e-17
1.48894e-27
-9.05723e-27
-1.00114e-27
-4.63903e-27
6.77808e-18
3.53683e-23
6.7781e-18
-1.82835e-23
6.77809e-18
7.39372e-24
6.7781e-18
-4.27722e-24
6.7781e-18
3.30422e-25
6.7781e-18
9.44105e-26
6.7781e-18
-7.55539e-25
6.7781e-18
-2.50256e-25
6.7781e-18
-1.81721e-25
6.7781e-18
-3.28388e-25
6.7781e-18
-1.82444e-25
6.7781e-18
-1.88003e-25
6.7781e-18
-1.35208e-25
6.7781e-18
-1.32538e-25
6.7781e-18
-9.75758e-26
6.7781e-18
-9.06315e-26
6.7781e-18
-8.00468e-26
6.77811e-18
-6.71282e-26
6.77811e-18
-7.35721e-26
6.77811e-18
-5.38412e-26
6.77811e-18
-6.70589e-26
6.77811e-18
-4.51361e-26
6.77811e-18
-6.03929e-26
6.77811e-18
-3.83375e-26
6.77811e-18
-5.12712e-26
6.77811e-18
-3.03989e-26
6.77811e-18
-4.74723e-26
6.77811e-18
-2.90316e-26
6.77811e-18
-4.37345e-26
6.77811e-18
-2.24114e-26
6.77811e-18
-3.25648e-26
6.77811e-18
-1.48052e-26
6.77811e-18
-2.9264e-26
6.77811e-18
-1.0962e-26
6.77811e-18
-2.85072e-26
6.77811e-18
-1.28904e-26
6.77811e-18
-3.06882e-26
6.77811e-18
-8.345e-27
6.77811e-18
-2.50126e-26
6.77811e-18
-8.60882e-28
6.77811e-18
-2.82368e-26
6.77811e-18
-1.84106e-27
6.77811e-18
-2.63057e-26
6.77811e-18
8.11955e-27
6.77811e-18
-1.31154e-26
6.77811e-18
1.4962e-26
6.77811e-18
-1.2523e-26
6.77811e-18
1.47832e-26
6.77811e-18
-1.47644e-26
6.77811e-18
8.32464e-27
6.77811e-18
-2.14311e-26
6.77811e-18
1.33773e-26
6.77811e-18
-1.58931e-26
6.77811e-18
2.02636e-26
6.77811e-18
-1.9929e-26
6.77811e-18
1.35692e-26
6.77811e-18
-2.67082e-26
6.77811e-18
1.88819e-26
6.77811e-18
-1.95285e-26
6.77811e-18
2.55597e-26
6.77811e-18
-1.97393e-26
6.77811e-18
2.0204e-26
6.77811e-18
-2.1686e-26
6.77811e-18
1.47193e-26
6.77811e-18
-2.26691e-26
6.77811e-18
1.20341e-26
6.77811e-18
-2.35337e-26
6.77811e-18
1.0773e-26
6.77811e-18
-2.40697e-26
6.77811e-18
9.05108e-27
6.77811e-18
-2.41242e-26
6.77811e-18
8.14498e-27
6.77811e-18
-2.78302e-26
6.77811e-18
3.93703e-27
6.77811e-18
-3.06293e-26
6.77811e-18
1.01605e-26
6.77811e-18
-2.08616e-26
6.77811e-18
1.59557e-26
6.77811e-18
-2.3088e-26
6.77811e-18
8.7417e-27
6.77811e-18
-2.45509e-26
6.77811e-18
1.20262e-26
6.77811e-18
-1.37306e-26
6.77811e-18
1.75279e-26
6.77811e-18
-1.61873e-26
6.77811e-18
1.14002e-26
6.77811e-18
-1.85279e-26
6.77811e-18
1.67656e-26
6.77811e-18
-8.88735e-27
6.77811e-18
2.30902e-26
6.77811e-18
-1.06669e-26
6.77811e-18
1.96688e-26
6.77811e-18
-1.41146e-26
6.77811e-18
1.6585e-26
6.77811e-18
-1.34933e-26
6.77811e-18
1.34821e-26
6.77811e-18
-1.00882e-26
6.77811e-18
1.4784e-26
6.77811e-18
-1.75517e-26
7.22068e-27
5.45268e-18
4.11799e-23
2.80718e-24
5.45269e-18
-2.30429e-23
-7.0647e-25
5.45268e-18
6.63557e-24
2.00895e-24
5.45269e-18
-6.52048e-24
3.96297e-25
5.45269e-18
-1.07383e-24
4.94412e-25
5.45269e-18
-3.92603e-25
4.65869e-25
5.45269e-18
-1.43691e-24
3.06357e-25
5.45269e-18
-6.06764e-25
2.42437e-25
5.45269e-18
-4.39194e-25
1.88043e-25
5.45269e-18
-5.16116e-25
1.33484e-25
5.45269e-18
-3.69823e-25
1.17778e-25
5.45269e-18
-3.32421e-25
9.28843e-26
5.45269e-18
-2.8408e-25
8.57073e-26
5.45269e-18
-2.5591e-25
6.90529e-26
5.4527e-18
-2.13507e-25
6.45518e-26
5.4527e-18
-1.90791e-25
5.2021e-26
5.4527e-18
-1.65914e-25
4.98676e-26
5.4527e-18
-1.44217e-25
3.95299e-26
5.4527e-18
-1.33872e-25
3.88085e-26
5.4527e-18
-1.13353e-25
3.04715e-26
5.4527e-18
-1.09382e-25
3.09461e-26
5.4527e-18
-9.24153e-26
2.52733e-26
5.4527e-18
-9.48327e-26
2.57889e-26
5.4527e-18
-8.05773e-26
2.18304e-26
5.4527e-18
-8.167e-26
2.20996e-26
5.4527e-18
-6.85213e-26
1.97261e-26
5.4527e-18
-7.35653e-26
2.00476e-26
5.4527e-18
-6.59386e-26
1.91168e-26
5.4527e-18
-7.09827e-26
1.85642e-26
5.4527e-18
-5.68403e-26
1.73702e-26
5.4527e-18
-5.57337e-26
1.5427e-26
5.4527e-18
-4.45548e-26
1.47905e-26
5.4527e-18
-4.99803e-26
1.3099e-26
5.4527e-18
-3.83707e-26
1.35462e-26
5.4527e-18
-4.34075e-26
1.14691e-26
5.4527e-18
-3.74394e-26
1.28455e-26
5.4527e-18
-4.89041e-26
1.19693e-26
5.4527e-18
-3.66776e-26
1.37091e-26
5.4527e-18
-3.99779e-26
1.10842e-26
5.4527e-18
-2.39909e-26
1.10225e-26
5.4527e-18
-3.41976e-26
8.75796e-27
5.4527e-18
-2.4356e-26
1.03335e-26
5.4527e-18
-3.3954e-26
8.90008e-27
5.4527e-18
-1.20583e-26
8.91012e-27
5.4527e-18
-1.62012e-26
4.9651e-27
5.4527e-18
9.1488e-28
4.96485e-27
5.4527e-18
-1.28169e-26
2.05355e-27
5.4527e-18
3.17378e-27
4.09281e-27
5.4527e-18
-8.53403e-27
1.48986e-27
5.4527e-18
-3.14605e-28
4.26792e-27
5.4527e-18
-2.1089e-26
3.91469e-27
5.4527e-18
-3.04098e-27
6.231e-27
5.4527e-18
-1.496e-26
3.95994e-27
5.4527e-18
6.55184e-27
3.70464e-27
5.4527e-18
-1.04955e-26
1.58768e-27
5.4527e-18
3.8657e-27
2.93605e-27
5.4527e-18
-2.25944e-26
3.90592e-27
5.4527e-18
1.79301e-27
4.74646e-27
5.4527e-18
-1.46689e-26
3.19841e-27
5.4527e-18
1.11165e-26
2.55613e-27
5.4527e-18
-8.1876e-27
3.58519e-28
5.4527e-18
1.10484e-26
1.43775e-27
5.4527e-18
-1.00612e-26
-1.53754e-28
5.4527e-18
5.75056e-27
2.31506e-27
5.4527e-18
-1.28893e-26
6.75639e-28
5.4527e-18
2.50878e-27
3.13945e-27
5.4527e-18
-1.52922e-26
1.03494e-27
5.4527e-18
-3.40931e-28
3.73579e-27
5.4527e-18
-1.7759e-26
1.39989e-27
5.4527e-18
-3.60063e-27
4.34922e-27
5.4527e-18
-1.97468e-26
1.88845e-27