/*--------------------------------*- C++ -*----------------------------------*\
| =========                 |                                                 |
| \\      /  F ield         | OpenFOAM: The Open Source CFD Toolbox           |
|  \\    /   O peration     | Version:  2412                                  |
|   \\  /    A nd           | Website:  www.openfoam.com                      |
|    \\/     M anipulation  |                                                 |
\*---------------------------------------------------------------------------*/
FoamFile
{
    version     2.0;
    format      ascii;
    arch        "LSB;label=32;scalar=64";
    class       surfaceScalarField;
    location    "300";
    object      phi;
}
// * * * * * * * * * * * * * * * * * * * * * * * * * * * * * * * * * * * * * //

dimensions      [0 3 -1 0 0 0 0];

oriented        oriented;

internalField   nonuniform List<scalar> 
116495
(
1.39796e-17
1.36062e-26
1.74315e-25
1.39796e-17
-1.15294e-26
-4.83543e-26
1.39796e-17
9.07687e-27
8.05485e-26
1.39796e-17
2.21522e-27
-5.64799e-26
1.39796e-17
4.33703e-27
2.53522e-26
1.39796e-17
2.63359e-27
-3.9539e-27
1.39796e-17
1.20375e-27
2.21399e-28
1.39796e-17
-2.05138e-28
5.50898e-27
1.39796e-17
-4.15237e-28
6.54574e-27
1.39796e-17
-6.63222e-28
8.38524e-27
1.39796e-17
-3.73281e-28
9.39141e-27
1.39796e-17
6.83536e-28
9.07237e-27
1.39796e-17
1.43273e-27
6.39595e-27
1.39796e-17
3.47277e-27
3.98854e-27
1.39796e-17
4.97776e-27
-7.0222e-28
1.39796e-17
7.98865e-27
-3.28669e-27
1.39796e-17
1.00408e-26
-9.31862e-27
1.39796e-17
1.40684e-26
-1.26672e-26
1.39796e-17
1.62615e-26
-2.20462e-26
1.39796e-17
2.12066e-26
-2.66868e-26
1.39796e-17
2.38615e-26
-3.75043e-26
1.39796e-17
2.9886e-26
-4.00227e-26
1.39796e-17
3.3839e-26
-4.91885e-26
1.39796e-17
4.01397e-26
-5.33361e-26
1.39796e-17
4.49173e-26
-6.22621e-26
1.39796e-17
4.92098e-26
-7.30223e-26
1.39796e-17
5.28983e-26
-8.32544e-26
1.39796e-17
5.60381e-26
-9.24734e-26
1.39796e-17
5.90547e-26
-1.00254e-25
1.39796e-17
6.24903e-26
-1.06714e-25
1.39796e-17
6.59852e-26
-1.14334e-25
1.39796e-17
7.02597e-26
-1.20035e-25
1.39796e-17
7.43966e-26
-1.28357e-25
1.39796e-17
8.22379e-26
-1.29899e-25
1.39796e-17
8.817e-26
-1.43443e-25
1.39796e-17
9.75699e-26
-1.50245e-25
1.39796e-17
1.02358e-25
-1.66369e-25
1.39796e-17
1.06216e-25
-1.75861e-25
1.39796e-17
1.08203e-25
-1.85972e-25
1.39796e-17
1.15753e-25
-1.8249e-25
1.39796e-17
1.22111e-25
-1.92761e-25
1.39796e-17
1.35403e-25
-1.92471e-25
1.39796e-17
1.45033e-25
-2.06171e-25
1.39796e-17
1.51983e-25
-2.26212e-25
1.39796e-17
1.55477e-25
-2.46332e-25
1.39796e-17
1.57572e-25
-2.59783e-25
1.39796e-17
1.58999e-25
-2.72478e-25
1.39796e-17
1.68317e-25
-2.70664e-25
1.39796e-17
1.75703e-25
-2.92548e-25
1.39796e-17
1.89549e-25
-3.04877e-25
1.39796e-17
1.96328e-25
-3.33639e-25
1.39796e-17
2.02109e-25
-3.48971e-25
1.39796e-17
2.04746e-25
-3.69067e-25
1.39796e-17
2.18548e-25
-3.66201e-25
1.39796e-17
2.30919e-25
-3.92776e-25
1.39796e-17
2.55475e-25
-3.98015e-25
1.39796e-17
2.74546e-25
-4.22044e-25
1.39796e-17
2.90897e-25
-4.43284e-25
1.39796e-17
2.99698e-25
-4.77582e-25
1.39796e-17
3.18267e-25
-4.83864e-25
1.39796e-17
3.31602e-25
-5.34057e-25
1.39796e-17
3.72803e-25
-5.31174e-25
1.39796e-17
4.03778e-25
-6.00096e-25
1.39796e-17
4.51916e-25
-6.34061e-25
1.39796e-17
4.79393e-25
-7.49168e-25
1.39796e-17
5.23725e-25
-8.0389e-25
1.39796e-17
5.46596e-25
-9.28208e-25
1.39796e-17
5.95878e-25
-9.49008e-25
1.39796e-17
6.24897e-25
-1.03115e-24
1.39796e-17
6.82509e-25
-1.00116e-24
1.39796e-17
7.14172e-25
-1.05525e-24
1.39796e-17
7.68793e-25
-1.0152e-24
1.39796e-17
7.92248e-25
-1.07832e-24
1.39796e-17
8.38662e-25
-1.03799e-24
1.39796e-17
8.5737e-25
-1.09664e-24
1.39796e-17
9.00213e-25
-1.05316e-24
1.39796e-17
9.22699e-25
-1.10902e-24
1.39796e-17
9.63884e-25
-1.08382e-24
1.39796e-17
9.86133e-25
-1.13373e-24
1.39796e-17
1.00143e-24
-1.13548e-24
1.39796e-17
9.91867e-25
-1.18539e-24
1.39796e-17
9.58672e-25
-1.28477e-24
1.39796e-17
9.15991e-25
-1.42041e-24
1.39796e-17
8.95977e-25
-1.48502e-24
1.39796e-17
8.83417e-25
-1.51763e-24
1.39796e-17
8.8828e-25
-1.42608e-24
1.39796e-17
8.74458e-25
-1.35009e-24
1.39796e-17
8.28842e-25
-1.30877e-24
1.39796e-17
7.67324e-25
-1.27644e-24
1.39796e-17
7.1833e-25
-1.18576e-24
1.39796e-17
6.83989e-25
-1.06297e-24
1.39796e-17
6.70511e-25
-8.80126e-25
1.39796e-17
6.42795e-25
-7.92245e-25
1.39796e-17
5.83212e-25
-7.69345e-25
1.39796e-17
5.16817e-25
-7.23601e-25
1.39796e-17
4.33877e-25
-6.18791e-25
1.39796e-17
3.83978e-25
-3.33371e-25
1.39796e-17
3.39952e-25
-1.51815e-25
1.39796e-17
3.63153e-25
4.85912e-26
5.41089e-25
8.94524e-26
1.95445e-17
-1.12068e-26
2.63317e-25
1.95445e-17
1.74819e-26
-1.2665e-25
1.95445e-17
4.26318e-27
1.19888e-25
1.95445e-17
7.42594e-27
-7.09513e-26
1.95445e-17
5.69255e-27
2.89685e-26
1.95445e-17
4.24975e-27
-8.09879e-28
1.95445e-17
2.2604e-27
-1.3903e-27
1.95445e-17
1.22254e-27
5.0588e-27
1.95445e-17
1.22352e-27
3.40818e-27
1.95445e-17
1.39685e-27
4.97609e-27
1.95445e-17
2.49424e-27
6.58585e-27
1.95445e-17
3.1521e-27
5.40553e-27
1.95445e-17
5.10717e-27
6.19887e-27
1.95445e-17
6.47204e-27
3.8071e-27
1.95445e-17
9.3956e-27
4.44904e-27
1.95445e-17
1.17357e-26
2.48014e-27
1.95445e-17
1.56787e-26
4.06905e-27
1.95445e-17
1.87315e-26
1.36946e-27
1.95445e-17
2.35548e-26
2.36899e-27
1.95445e-17
2.71919e-26
-1.6897e-27
1.95445e-17
3.28583e-26
3.13788e-28
1.95445e-17
3.7436e-26
-2.31785e-27
1.95445e-17
4.39824e-26
8.25894e-28
1.95445e-17
4.90644e-26
-2.59733e-28
1.95445e-17
5.4526e-26
-1.15685e-28
1.95445e-17
5.89503e-26
-2.33038e-27
1.95445e-17
6.32867e-26
-3.52783e-27
1.95445e-17
6.75336e-26
-3.60523e-27
1.95445e-17
7.22221e-26
-1.78429e-27
1.95445e-17
7.72923e-26
3.51958e-28
1.95445e-17
8.27004e-26
2.29037e-27
1.95445e-17
8.84435e-26
4.09074e-27
1.95445e-17
9.5418e-26
8.03745e-27
1.95445e-17
1.02366e-25
7.78477e-27
1.95445e-17
1.11648e-25
9.94554e-27
1.95445e-17
1.19198e-25
4.32919e-27
1.95445e-17
1.26314e-25
1.58936e-27
1.95445e-17
1.31972e-25
1.03551e-27
1.95445e-17
1.38972e-25
7.97906e-27
1.95445e-17
1.46792e-25
1.19541e-26
1.95445e-17
1.58482e-25
1.99878e-26
1.95445e-17
1.68644e-25
1.74952e-26
1.95445e-17
1.77878e-25
1.33538e-26
1.95445e-17
1.83407e-25
3.55149e-27
1.95445e-17
1.87708e-25
-2.23786e-27
1.95445e-17
1.91639e-25
-3.3278e-27
1.95445e-17
1.98548e-25
5.30222e-27
1.95445e-17
2.06883e-25
7.69779e-27
1.95445e-17
2.1935e-25
9.647e-27
1.95445e-17
2.30008e-25
-2.14911e-27
1.95445e-17
2.39563e-25
-1.04029e-26
1.95445e-17
2.47201e-25
-1.32086e-26
1.95445e-17
2.5756e-25
-3.67344e-27
1.95445e-17
2.70961e-25
-1.3939e-28
1.95445e-17
2.91243e-25
6.52525e-27
1.95445e-17
3.12026e-25
1.76003e-27
1.95445e-17
3.31949e-25
-7.34636e-28
1.95445e-17
3.47369e-25
-4.85045e-27
1.95445e-17
3.6352e-25
3.30759e-27
1.95445e-17
3.80523e-25
3.44522e-27
1.95445e-17
4.0862e-25
1.9602e-26
1.95445e-17
4.41813e-25
1.61496e-26
1.95445e-17
4.82193e-25
1.65992e-26
1.95445e-17
5.20354e-25
-1.08218e-26
1.95445e-17
5.61161e-25
-2.98199e-26
1.95445e-17
6.01169e-25
-6.44499e-26
1.95445e-17
6.47372e-25
-7.31294e-26
1.95445e-17
6.96287e-25
-8.32196e-26
1.95445e-17
7.53367e-25
-5.37332e-26
1.95445e-17
8.11705e-25
-2.37089e-26
1.95445e-17
8.70246e-25
3.2194e-26
1.95445e-17
9.24158e-25
6.97224e-26
1.95445e-17
9.71711e-25
1.17496e-25
1.95445e-17
1.01658e-24
1.52441e-25
1.95445e-17
1.05302e-24
1.89673e-25
1.95445e-17
1.09421e-24
2.24214e-25
1.95445e-17
1.12388e-24
2.39547e-25
1.95445e-17
1.16362e-24
2.62007e-25
1.95445e-17
1.17883e-24
2.56323e-25
1.95445e-17
1.18423e-24
2.71217e-25
1.95445e-17
1.15023e-24
2.37311e-25
1.95445e-17
1.09811e-24
1.6924e-25
1.95445e-17
1.04742e-24
8.66906e-26
1.95445e-17
1.0168e-24
1.50815e-26
1.95445e-17
1.00418e-24
-3.68781e-27
1.95445e-17
1.00544e-24
3.76579e-26
1.95445e-17
9.79309e-25
5.91367e-26
1.95445e-17
9.29083e-25
6.66638e-26
1.95445e-17
8.69932e-25
7.4413e-26
1.95445e-17
8.24161e-25
1.05381e-25
1.95445e-17
7.93362e-25
1.72636e-25
1.95445e-17
7.78566e-25
2.52202e-25
1.95445e-17
7.33296e-25
2.41326e-25
1.95445e-17
6.74573e-25
2.02918e-25
1.95445e-17
5.86163e-25
1.22249e-25
1.95445e-17
5.0909e-25
1.38538e-25
1.95445e-17
4.27455e-25
2.45319e-25
1.95445e-17
3.73916e-25
3.19803e-25
1.95445e-17
3.61243e-25
5.07241e-25
4.54084e-25
6.89212e-25
1.39796e-17
1.60349e-25
1.39796e-17
-4.04939e-26
1.39796e-17
7.75406e-26
1.39796e-17
-5.19e-26
1.39796e-17
2.28217e-26
1.39796e-17
-5.35707e-27
1.39796e-17
-3.62853e-27
1.39796e-17
1.45811e-27
1.39796e-17
8.35049e-28
1.39796e-17
3.77585e-27
1.39796e-17
5.01779e-27
1.39796e-17
6.7701e-27
1.39796e-17
8.09227e-27
1.39796e-17
9.9894e-27
1.39796e-17
1.19283e-26
1.39796e-17
1.58465e-26
1.39796e-17
1.98137e-26
1.39796e-17
2.52057e-26
1.39796e-17
2.91826e-26
1.39796e-17
3.53741e-26
1.39796e-17
4.08484e-26
1.39796e-17
4.89266e-26
1.39796e-17
5.58955e-26
1.39796e-17
6.31924e-26
1.39796e-17
6.87823e-26
1.39796e-17
7.37985e-26
1.39796e-17
7.92316e-26
1.39796e-17
8.69883e-26
1.39796e-17
9.67665e-26
1.39796e-17
1.06877e-25
1.39796e-17
1.16823e-25
1.39796e-17
1.27676e-25
1.39796e-17
1.38647e-25
1.39796e-17
1.50324e-25
1.39796e-17
1.56716e-25
1.39796e-17
1.61634e-25
1.39796e-17
1.66632e-25
1.39796e-17
1.7938e-25
1.39796e-17
1.9797e-25
1.39796e-17
2.18705e-25
1.39796e-17
2.32129e-25
1.39796e-17
2.41048e-25
1.39796e-17
2.41421e-25
1.39796e-17
2.42009e-25
1.39796e-17
2.45859e-25
1.39796e-17
2.58747e-25
1.39796e-17
2.77599e-25
1.39796e-17
2.95931e-25
1.39796e-17
3.01563e-25
1.39796e-17
3.02057e-25
1.39796e-17
3.02532e-25
1.39796e-17
3.18435e-25
1.39796e-17
3.45602e-25
1.39796e-17
3.7419e-25
1.39796e-17
3.91519e-25
1.39796e-17
4.05694e-25
1.39796e-17
4.14014e-25
1.39796e-17
4.34548e-25
1.39796e-17
4.64272e-25
1.39796e-17
5.05175e-25
1.39796e-17
5.44267e-25
1.39796e-17
5.81537e-25
1.39796e-17
5.96918e-25
1.39796e-17
6.15629e-25
1.39796e-17
6.2359e-25
1.39796e-17
6.49715e-25
1.39796e-17
6.82685e-25
1.39796e-17
7.5534e-25
1.39796e-17
8.43973e-25
1.39796e-17
9.71327e-25
1.39796e-17
1.09128e-24
1.39796e-17
1.22411e-24
1.39796e-17
1.33126e-24
1.39796e-17
1.44278e-24
1.39796e-17
1.52599e-24
1.39796e-17
1.60309e-24
1.39796e-17
1.64509e-24
1.39796e-17
1.6734e-24
1.39796e-17
1.66739e-24
1.39796e-17
1.66109e-24
1.39796e-17
1.59908e-24
1.39796e-17
1.5206e-24
1.39796e-17
1.42977e-24
1.39796e-17
1.35349e-24
1.39796e-17
1.31849e-24
1.39796e-17
1.30688e-24
1.39796e-17
1.26811e-24
1.39796e-17
1.24514e-24
1.39796e-17
1.23863e-24
1.39796e-17
1.26004e-24
1.39796e-17
1.30727e-24
1.39796e-17
1.31137e-24
1.39796e-17
1.22146e-24
1.39796e-17
1.08382e-24
1.39796e-17
9.39824e-25
1.39796e-17
8.69204e-25
1.39796e-17
8.82623e-25
1.39796e-17
8.25885e-25
1.39796e-17
8.6119e-25
8.98108e-25
1.47444e-17
1.54024e-26
1.79878e-25
1.47444e-17
-3.26084e-26
-3.28695e-26
1.47444e-17
-3.02293e-27
9.66425e-26
1.47444e-17
-3.00798e-26
-2.73219e-26
1.47444e-17
-2.21297e-26
5.62971e-26
1.47444e-17
-2.96066e-26
3.36016e-26
1.47444e-17
-3.27921e-26
3.80386e-26
1.47444e-17
-3.48817e-26
4.47179e-26
1.47444e-17
-3.74381e-26
4.28173e-26
1.47444e-17
-3.78095e-26
4.34695e-26
1.47444e-17
-3.71999e-26
4.12561e-26
1.47444e-17
-3.44292e-26
3.84959e-26
1.47444e-17
-2.99427e-26
3.40741e-26
1.47444e-17
-2.30418e-26
2.83518e-26
1.47444e-17
-1.43985e-26
2.02369e-26
1.47444e-17
-4.04093e-27
8.37943e-27
1.47444e-17
8.02929e-27
-6.09999e-27
1.47444e-17
2.16207e-26
-2.39544e-26
1.47444e-17
3.67464e-26
-4.23258e-26
1.47444e-17
5.24158e-26
-6.46017e-26
1.47444e-17
6.91149e-26
-8.64754e-26
1.47444e-17
8.55784e-26
-1.09909e-25
1.47444e-17
1.02914e-25
-1.30065e-25
1.47444e-17
1.20815e-25
-1.49196e-25
1.47444e-17
1.40661e-25
-1.63956e-25
1.47444e-17
1.61587e-25
-1.77435e-25
1.47444e-17
1.8285e-25
-1.91047e-25
1.47444e-17
2.04053e-25
-2.06882e-25
1.47444e-17
2.25131e-25
-2.25183e-25
1.47444e-17
2.46331e-25
-2.45671e-25
1.47444e-17
2.67939e-25
-2.67635e-25
1.47444e-17
2.89954e-25
-2.9112e-25
1.47444e-17
3.12556e-25
-3.1546e-25
1.47444e-17
3.35539e-25
-3.40595e-25
1.47444e-17
3.59342e-25
-3.65811e-25
1.47444e-17
3.83785e-25
-3.91673e-25
1.47444e-17
4.10349e-25
-4.18119e-25
1.47444e-17
4.37949e-25
-4.48991e-25
1.47444e-17
4.65306e-25
-4.83678e-25
1.47444e-17
4.896e-25
-5.24488e-25
1.47444e-17
5.12166e-25
-5.64178e-25
1.47444e-17
5.33063e-25
-6.04245e-25
1.47444e-17
5.60201e-25
-6.28093e-25
1.47444e-17
5.91172e-25
-6.45482e-25
1.47444e-17
6.25162e-25
-6.6088e-25
1.47444e-17
6.59733e-25
-6.83038e-25
1.47444e-17
6.94404e-25
-7.11767e-25
1.47444e-17
7.28735e-25
-7.45675e-25
1.47444e-17
7.64479e-25
-7.81151e-25
1.47444e-17
8.01805e-25
-8.18473e-25
1.47444e-17
8.4452e-25
-8.57165e-25
1.47444e-17
8.91135e-25
-9.05654e-25
1.47444e-17
9.41369e-25
-9.63797e-25
1.47444e-17
9.90492e-25
-1.03851e-24
1.47444e-17
1.04195e-24
-1.11565e-24
1.47444e-17
1.09428e-24
-1.20117e-24
1.47444e-17
1.1633e-24
-1.26169e-24
1.47444e-17
1.24218e-24
-1.3194e-24
1.47444e-17
1.32991e-24
-1.38224e-24
1.47444e-17
1.41671e-24
-1.47914e-24
1.47444e-17
1.50786e-24
-1.59347e-24
1.47444e-17
1.60033e-24
-1.73098e-24
1.47444e-17
1.71922e-24
-1.83746e-24
1.47444e-17
1.85686e-24
-1.942e-24
1.47444e-17
2.01738e-24
-2.05711e-24
1.47444e-17
2.18287e-24
-2.23131e-24
1.47444e-17
2.36173e-24
-2.43724e-24
1.47444e-17
2.53406e-24
-2.71346e-24
1.47444e-17
2.72727e-24
-2.96583e-24
1.47444e-17
2.91626e-24
-3.24725e-24
1.47444e-17
3.12572e-24
-3.48595e-24
1.47444e-17
3.32713e-24
-3.75271e-24
1.47444e-17
3.53968e-24
-3.97759e-24
1.47444e-17
3.72998e-24
-4.22908e-24
1.47444e-17
3.91887e-24
-4.42883e-24
1.47444e-17
4.07281e-24
-4.64524e-24
1.47444e-17
4.2195e-24
-4.79289e-24
1.47444e-17
4.32807e-24
-4.94622e-24
1.47444e-17
4.43771e-24
-5.01303e-24
1.47444e-17
4.52206e-24
-5.07035e-24
1.47444e-17
4.62498e-24
-5.03848e-24
1.47444e-17
4.71745e-24
-4.98751e-24
1.47444e-17
4.77966e-24
-4.9292e-24
1.47444e-17
4.79025e-24
-4.91114e-24
1.47444e-17
4.75458e-24
-4.90642e-24
1.47444e-17
4.67265e-24
-4.92578e-24
1.47444e-17
4.60148e-24
-4.85077e-24
1.47444e-17
4.51817e-24
-4.72562e-24
1.47444e-17
4.4149e-24
-4.56242e-24
1.47444e-17
4.27046e-24
-4.39729e-24
1.47444e-17
4.07564e-24
-4.22286e-24
1.47444e-17
3.83026e-24
-4.04084e-24
1.47444e-17
3.5656e-24
-3.77605e-24
1.47444e-17
3.26337e-24
-3.43404e-24
1.47444e-17
2.89912e-24
-3.04814e-24
1.47444e-17
2.47859e-24
-2.6087e-24
1.47444e-17
2.01886e-24
-2.16379e-24
1.47444e-17
1.62156e-24
-1.8374e-24
1.47444e-17
1.50518e-24
-1.64819e-24
1.98064e-24
-1.36409e-24
2.4868e-17
7.37759e-27
2.67881e-25
2.4868e-17
-2.3207e-26
-1.05851e-25
2.4868e-17
-6.02855e-27
1.27546e-25
2.4868e-17
-3.15172e-26
-6.60571e-26
2.4868e-17
-2.0664e-26
4.12861e-26
2.4868e-17
-3.06077e-26
3.00941e-27
2.4868e-17
-3.44359e-26
8.00772e-27
2.4868e-17
-3.86235e-26
1.30289e-26
2.4868e-17
-4.12929e-26
1.16165e-26
2.4868e-17
-4.32884e-26
1.19524e-26
2.4868e-17
-4.2132e-26
1.25717e-26
2.4868e-17
-3.96207e-26
1.10294e-26
2.4868e-17
-3.36258e-26
1.10966e-26
2.4868e-17
-2.58932e-26
9.38011e-27
2.4868e-17
-1.53156e-26
8.28495e-27
2.4868e-17
-3.28489e-27
4.82755e-27
2.4868e-17
1.12687e-26
1.35032e-27
2.4868e-17
2.75379e-26
-3.37804e-27
2.4868e-17
4.49509e-26
-7.76525e-27
2.4868e-17
6.35622e-26
-1.36036e-26
2.4868e-17
8.30188e-26
-1.98458e-26
2.4868e-17
1.03767e-25
-2.5661e-26
2.4868e-17
1.2501e-25
-3.06625e-26
2.4868e-17
1.48746e-25
-3.35506e-26
2.4868e-17
1.7451e-25
-3.59043e-26
2.4868e-17
2.02049e-25
-3.79067e-26
2.4868e-17
2.30189e-25
-4.08571e-26
2.4868e-17
2.57744e-25
-4.50008e-26
2.4868e-17
2.84496e-25
-5.06417e-26
2.4868e-17
3.11106e-25
-5.64047e-26
2.4868e-17
3.3737e-25
-6.31531e-26
2.4868e-17
3.64349e-25
-6.91553e-26
2.4868e-17
3.9091e-25
-7.60583e-26
2.4868e-17
4.19213e-25
-8.11111e-26
2.4868e-17
4.47101e-25
-8.70046e-26
2.4868e-17
4.7868e-25
-8.98281e-26
2.4868e-17
5.10738e-25
-9.58717e-26
2.4868e-17
5.44046e-25
-1.03581e-25
2.4868e-17
5.73705e-25
-1.15665e-25
2.4868e-17
6.01888e-25
-1.2649e-25
2.4868e-17
6.24657e-25
-1.39544e-25
2.4868e-17
6.54267e-25
-1.42294e-25
2.4868e-17
6.88271e-25
-1.44467e-25
2.4868e-17
7.30916e-25
-1.4205e-25
2.4868e-17
7.75911e-25
-1.44332e-25
2.4868e-17
8.20986e-25
-1.50344e-25
2.4868e-17
8.62722e-25
-1.61765e-25
2.4868e-17
9.06014e-25
-1.71199e-25
2.4868e-17
9.47962e-25
-1.82389e-25
2.4868e-17
9.98042e-25
-1.8657e-25
2.4868e-17
1.05016e-24
-1.96688e-25
2.4868e-17
1.10841e-24
-2.08427e-25
2.4868e-17
1.16311e-24
-2.30417e-25
2.4868e-17
1.22225e-24
-2.48969e-25
2.4868e-17
1.27499e-24
-2.76455e-25
2.4868e-17
1.34693e-24
-2.83079e-25
2.4868e-17
1.42691e-24
-2.9324e-25
2.4868e-17
1.52825e-24
-2.90689e-25
2.4868e-17
1.63085e-24
-3.05607e-25
2.4868e-17
1.74154e-24
-3.2547e-25
2.4868e-17
1.83952e-24
-3.71474e-25
2.4868e-17
1.96623e-24
-3.91236e-25
2.4868e-17
2.10361e-24
-4.18811e-25
2.4868e-17
2.28788e-24
-4.20994e-25
2.4868e-17
2.47885e-24
-4.55968e-25
2.4868e-17
2.69762e-24
-4.91475e-25
2.4868e-17
2.89211e-24
-5.75825e-25
2.4868e-17
3.11e-24
-6.33176e-25
2.4868e-17
3.30099e-24
-7.17848e-25
2.4868e-17
3.52577e-24
-7.53408e-25
2.4868e-17
3.73342e-24
-8.14219e-25
2.4868e-17
3.97611e-24
-8.39078e-25
2.4868e-17
4.18982e-24
-9.00531e-25
2.4868e-17
4.42635e-24
-9.22719e-25
2.4868e-17
4.6143e-24
-9.83351e-25
2.4868e-17
4.81773e-24
-9.9223e-25
2.4868e-17
4.96306e-24
-1.04647e-24
2.4868e-17
5.1331e-24
-1.03687e-24
2.4868e-17
5.2495e-24
-1.07361e-24
2.4868e-17
5.41159e-24
-1.03335e-24
2.4868e-17
5.54965e-24
-1.03935e-24
2.4868e-17
5.69828e-24
-1.02247e-24
2.4868e-17
5.79518e-24
-1.0468e-24
2.4868e-17
5.82161e-24
-1.07695e-24
2.4868e-17
5.75293e-24
-1.1256e-24
2.4868e-17
5.67786e-24
-1.09604e-24
2.4868e-17
5.56944e-24
-1.08342e-24
2.4868e-17
5.47444e-24
-1.02832e-24
2.4868e-17
5.33923e-24
-9.90765e-25
2.4868e-17
5.13998e-24
-9.60604e-25
2.4868e-17
4.86818e-24
-9.23808e-25
2.4868e-17
4.57452e-24
-8.42515e-25
2.4868e-17
4.24964e-24
-7.65798e-25
2.4868e-17
3.89282e-24
-6.79112e-25
2.4868e-17
3.46818e-24
-5.77967e-25
2.4868e-17
2.92523e-24
-5.12576e-25
2.4868e-17
2.37189e-24
-3.61659e-25
2.4868e-17
1.91624e-24
-3.64481e-25
2.4868e-17
1.90334e-24
-3.57188e-25
2.68678e-24
-4.65887e-26
3.03692e-17
2.90118e-26
2.65187e-25
3.03692e-17
-3.54728e-26
-1.01863e-25
3.03692e-17
5.09937e-27
1.31555e-25
3.03692e-17
-3.85177e-26
-8.3769e-26
3.03692e-17
-1.79228e-26
3.81357e-26
3.03692e-17
-2.81271e-26
-9.12238e-27
3.03692e-17
-3.22869e-26
-7.39416e-27
3.03692e-17
-3.34975e-26
1.48538e-27
3.03692e-17
-3.7665e-26
-3.20377e-27
3.03692e-17
-3.82104e-26
5.41817e-28
3.03692e-17
-3.8445e-26
-3.78468e-28
3.03692e-17
-3.52732e-26
1.07945e-27
3.03692e-17
-3.04273e-26
8.5705e-28
3.03692e-17
-2.26962e-26
2.3819e-27
3.03692e-17
-1.36718e-26
2.42014e-27
3.03692e-17
-2.80608e-27
3.71326e-27
3.03692e-17
9.52578e-27
3.91747e-27
3.03692e-17
2.323e-26
4.63656e-27
3.03692e-17
3.79989e-26
4.7944e-27
3.03692e-17
5.36534e-26
4.27147e-27
3.03692e-17
7.17405e-26
4.64798e-27
3.03692e-17
8.99807e-26
4.71367e-27
3.03692e-17
1.11523e-25
7.52866e-27
3.03692e-17
1.34063e-25
9.54059e-27
3.03692e-17
1.59535e-25
1.22572e-26
3.03692e-17
1.86568e-25
1.3849e-26
3.03692e-17
2.13103e-25
1.42905e-26
3.03692e-17
2.38392e-25
1.39234e-26
3.03692e-17
2.62203e-25
1.37705e-26
3.03692e-17
2.84672e-25
1.27499e-26
3.03692e-17
3.07486e-25
1.33861e-26
3.03692e-17
3.29425e-25
1.29035e-26
3.03692e-17
3.53207e-25
1.54869e-26
3.03692e-17
3.76296e-25
1.61324e-26
3.03692e-17
4.05086e-25
2.2393e-26
3.03692e-17
4.33458e-25
2.49065e-26
3.03692e-17
4.64414e-25
2.92167e-26
3.03692e-17
4.90237e-25
2.72358e-26
3.03692e-17
5.1391e-25
2.74698e-26
3.03692e-17
5.31509e-25
2.31105e-26
3.03692e-17
5.57092e-25
3.20138e-26
3.03692e-17
5.84051e-25
3.57977e-26
3.03692e-17
6.23459e-25
4.7859e-26
3.03692e-17
6.66995e-25
5.29853e-26
3.03692e-17
7.10435e-25
5.49131e-26
3.03692e-17
7.48639e-25
5.1319e-26
3.03692e-17
7.85192e-25
5.09092e-26
3.03692e-17
8.182e-25
4.63828e-26
3.03692e-17
8.62897e-25
5.37033e-26
3.03692e-17
9.08394e-25
5.44512e-26
3.03692e-17
9.61526e-25
6.1904e-26
3.03692e-17
1.00675e-24
5.65148e-26
3.03692e-17
1.05366e-24
5.87255e-26
3.03692e-17
1.0927e-24
4.73559e-26
3.03692e-17
1.15306e-24
6.50754e-26
3.03692e-17
1.21506e-24
6.87054e-26
3.03692e-17
1.3024e-24
9.91565e-26
3.03692e-17
1.39098e-24
1.1076e-25
3.03692e-17
1.48747e-24
1.28496e-25
3.03692e-17
1.56909e-24
1.14042e-25
3.03692e-17
1.67591e-24
1.34834e-25
3.03692e-17
1.77853e-24
1.26736e-25
3.03692e-17
1.93674e-24
1.70825e-25
3.03692e-17
2.0984e-24
1.73952e-25
3.03692e-17
2.29792e-24
2.03759e-25
3.03692e-17
2.4666e-24
1.70946e-25
3.03692e-17
2.65783e-24
1.92249e-25
3.03692e-17
2.79962e-24
1.56713e-25
3.03692e-17
2.97747e-24
2.1387e-25
3.03692e-17
3.11944e-24
2.25838e-25
3.03692e-17
3.31062e-24
3.17495e-25
3.03692e-17
3.46727e-24
3.38333e-25
3.03692e-17
3.67001e-24
4.30567e-25
3.03692e-17
3.82169e-24
4.38268e-25
3.03692e-17
4.01548e-24
5.28298e-25
3.03692e-17
4.15013e-24
5.19637e-25
3.03692e-17
4.33727e-24
6.08327e-25
3.03692e-17
4.46658e-24
5.91021e-25
3.03692e-17
4.65242e-24
6.90515e-25
3.03692e-17
4.78936e-24
6.81149e-25
3.03692e-17
4.95793e-24
7.16092e-25
3.03692e-17
5.08468e-24
6.71783e-25
3.03692e-17
5.1846e-24
6.0745e-25
3.03692e-17
5.19818e-24
5.13009e-25
3.03692e-17
5.18296e-24
5.31211e-25
3.03692e-17
5.08803e-24
5.17259e-25
3.03692e-17
5.00694e-24
5.7755e-25
3.03692e-17
4.88819e-24
5.70053e-25
3.03692e-17
4.72956e-24
5.42506e-25
3.03692e-17
4.51553e-24
5.20064e-25
3.03692e-17
4.27415e-24
5.59039e-25
3.03692e-17
3.99498e-24
5.75162e-25
3.03692e-17
3.73023e-24
5.87972e-25
3.03692e-17
3.43447e-24
5.59471e-25
3.03692e-17
3.04343e-24
4.62737e-25
3.03692e-17
2.59743e-24
4.44149e-25
3.03692e-17
2.11244e-24
4.51071e-25
3.03692e-17
1.78717e-24
3.76296e-25
3.03692e-17
1.89599e-24
3.4708e-25
2.78147e-24
5.09359e-25
3.69252e-17
4.32168e-26
2.8678e-25
3.69252e-17
-3.83064e-26
-8.07835e-26
3.69252e-17
2.80597e-26
1.11964e-25
3.69252e-17
-2.676e-26
-1.11562e-25
3.69252e-17
1.55676e-26
1.58186e-26
3.69252e-17
-2.01555e-27
-4.35964e-26
3.69252e-17
2.65584e-29
-3.89943e-26
3.69252e-17
-9.74221e-28
-3.2594e-26
3.69252e-17
-2.81802e-27
-3.22517e-26
3.69252e-17
-6.09697e-27
-2.74523e-26
3.69252e-17
-8.40187e-27
-2.17673e-26
3.69252e-17
-1.11827e-26
-1.59881e-26
3.69252e-17
-1.38282e-26
-7.64509e-27
3.69252e-17
-1.74493e-26
2.43572e-27
3.69252e-17
-2.3644e-26
1.63778e-26
3.69252e-17
-3.20604e-26
3.46929e-26
3.69252e-17
-4.47445e-26
5.68714e-26
3.69252e-17
-5.82845e-26
8.30818e-26
3.69252e-17
-7.70426e-26
1.09766e-25
3.69252e-17
-9.34391e-26
1.40147e-25
3.69252e-17
-1.12729e-25
1.70003e-25
3.69252e-17
-1.24624e-25
2.03774e-25
3.69252e-17
-1.36127e-25
2.34342e-25
3.69252e-17
-1.40457e-25
2.65092e-25
3.69252e-17
-1.4389e-25
2.92221e-25
3.69252e-17
-1.47909e-25
3.16609e-25
3.69252e-17
-1.54261e-25
3.41867e-25
3.69252e-17
-1.65219e-25
3.68754e-25
3.69252e-17
-1.80849e-25
3.9867e-25
3.69252e-17
-1.9858e-25
4.32329e-25
3.69252e-17
-2.19683e-25
4.678e-25
3.69252e-17
-2.40366e-25
5.07242e-25
3.69252e-17
-2.63703e-25
5.4717e-25
3.69252e-17
-2.78636e-25
5.9292e-25
3.69252e-17
-2.95977e-25
6.34667e-25
3.69252e-17
-3.06486e-25
6.82701e-25
3.69252e-17
-3.3084e-25
7.28088e-25
3.69252e-17
-3.65409e-25
7.79095e-25
3.69252e-17
-4.12766e-25
8.31061e-25
3.69252e-17
-4.47252e-25
8.93396e-25
3.69252e-17
-4.77286e-25
9.47074e-25
3.69252e-17
-4.79049e-25
1.00579e-24
3.69252e-17
-4.76453e-25
1.05207e-24
3.69252e-17
-4.76272e-25
1.08942e-24
3.69252e-17
-4.87259e-25
1.12478e-24
3.69252e-17
-5.08916e-25
1.16447e-24
3.69252e-17
-5.41711e-25
1.20756e-24
3.69252e-17
-5.58545e-25
1.26415e-24
3.69252e-17
-5.77025e-25
1.31327e-24
3.69252e-17
-5.80313e-25
1.3755e-24
3.69252e-17
-6.07671e-25
1.43487e-24
3.69252e-17
-6.51347e-25
1.51014e-24
3.69252e-17
-7.21618e-25
1.58808e-24
3.69252e-17
-7.68055e-25
1.69184e-24
3.69252e-17
-8.15534e-25
1.78382e-24
3.69252e-17
-8.1941e-25
1.90264e-24
3.69252e-17
-8.32255e-25
2.01494e-24
3.69252e-17
-8.53924e-25
2.13807e-24
3.69252e-17
-9.16778e-25
2.25739e-24
3.69252e-17
-9.70454e-25
2.40605e-24
3.69252e-17
-1.05169e-24
2.53746e-24
3.69252e-17
-1.05288e-24
2.72357e-24
3.69252e-17
-1.0734e-24
2.88283e-24
3.69252e-17
-1.06192e-24
3.08552e-24
3.69252e-17
-1.14774e-24
3.2628e-24
3.69252e-17
-1.24483e-24
3.52124e-24
3.69252e-17
-1.46779e-24
3.77603e-24
3.69252e-17
-1.66086e-24
4.15062e-24
3.69252e-17
-1.93471e-24
4.52727e-24
3.69252e-17
-2.12984e-24
5.00904e-24
3.69252e-17
-2.38821e-24
5.44582e-24
3.69252e-17
-2.56322e-24
5.93687e-24
3.69252e-17
-2.80267e-24
6.33681e-24
3.69252e-17
-2.9348e-24
6.77395e-24
3.69252e-17
-3.10891e-24
7.08986e-24
3.69252e-17
-3.14084e-24
7.4201e-24
3.69252e-17
-3.18691e-24
7.60232e-24
3.69252e-17
-3.08236e-24
7.80052e-24
3.69252e-17
-2.99834e-24
7.87134e-24
3.69252e-17
-2.84254e-24
7.94069e-24
3.69252e-17
-2.74412e-24
7.89677e-24
3.69252e-17
-2.68708e-24
7.77485e-24
3.69252e-17
-2.66817e-24
7.5849e-24
3.69252e-17
-2.61348e-24
7.4258e-24
3.69252e-17
-2.57995e-24
7.28935e-24
3.69252e-17
-2.47135e-24
7.27121e-24
3.69252e-17
-2.43071e-24
7.20699e-24
3.69252e-17
-2.44674e-24
7.07385e-24
3.69252e-17
-2.48853e-24
6.87584e-24
3.69252e-17
-2.47382e-24
6.66913e-24
3.69252e-17
-2.39248e-24
6.44871e-24
3.69252e-17
-2.19196e-24
6.2241e-24
3.69252e-17
-1.99048e-24
5.85835e-24
3.69252e-17
-1.82198e-24
5.34033e-24
3.69252e-17
-1.62478e-24
4.74257e-24
3.69252e-17
-1.40076e-24
4.09072e-24
3.69252e-17
-9.60178e-25
3.50738e-24
3.69252e-17
-3.36012e-25
2.71377e-24
3.69252e-17
8.05406e-25
1.89108e-24
2.33157e-24
1.25161e-24
5.50163e-17
2.54082e-26
3.06546e-25
5.50163e-17
3.25522e-26
2.76755e-26
5.50163e-17
5.68079e-26
1.38446e-25
5.50163e-17
4.66366e-26
-2.47055e-26
5.50163e-17
5.23252e-26
5.73757e-26
5.50163e-17
4.38588e-26
2.20217e-26
5.50163e-17
3.51753e-26
1.91141e-26
5.50163e-17
2.83937e-26
2.28603e-26
5.50163e-17
2.16181e-26
2.10567e-26
5.50163e-17
1.45318e-26
2.31358e-26
5.50163e-17
7.92318e-27
2.54618e-26
5.50163e-17
-8.37839e-28
2.68744e-26
5.50163e-17
-9.81156e-27
2.95333e-26
5.50163e-17
-2.28724e-26
3.20646e-26
5.50163e-17
-3.81628e-26
3.77258e-26
5.50163e-17
-6.04785e-26
4.48353e-26
5.50163e-17
-8.57964e-26
5.58087e-26
5.50163e-17
-1.18842e-25
6.63122e-26
5.50163e-17
-1.52149e-25
7.93334e-26
5.50163e-17
-1.91222e-25
9.17455e-26
5.50163e-17
-2.2539e-25
1.08174e-25
5.50163e-17
-2.59958e-25
1.22935e-25
5.50163e-17
-2.87186e-25
1.39584e-25
5.50163e-17
-3.1433e-25
1.53521e-25
5.50163e-17
-3.41867e-25
1.65256e-25
5.50163e-17
-3.73359e-25
1.75251e-25
5.50163e-17
-4.09508e-25
1.85598e-25
5.50163e-17
-4.51071e-25
1.98119e-25
5.50163e-17
-4.95603e-25
2.14235e-25
5.50163e-17
-5.42364e-25
2.32944e-25
5.50163e-17
-5.90516e-25
2.53344e-25
5.50163e-17
-6.40179e-25
2.74916e-25
5.50163e-17
-6.84906e-25
2.9901e-25
5.50163e-17
-7.27538e-25
3.20864e-25
5.50163e-17
-7.61136e-25
3.44115e-25
5.50163e-17
-8.0357e-25
3.6353e-25
5.50163e-17
-8.61708e-25
3.84231e-25
5.50163e-17
-9.39493e-25
4.08166e-25
5.50163e-17
-1.01645e-24
4.3961e-25
5.50163e-17
-1.08282e-24
4.70352e-25
5.50163e-17
-1.11869e-24
5.02559e-25
5.50163e-17
-1.1412e-24
5.28168e-25
5.50163e-17
-1.1645e-24
5.44746e-25
5.50163e-17
-1.20563e-24
5.54832e-25
5.50163e-17
-1.26473e-24
5.64862e-25
5.50163e-17
-1.33845e-24
5.79424e-25
5.50163e-17
-1.4027e-24
6.04982e-25
5.50163e-17
-1.45486e-24
6.29461e-25
5.50163e-17
-1.48452e-24
6.55037e-25
5.50163e-17
-1.52498e-24
6.73727e-25
5.50163e-17
-1.59295e-24
6.96001e-25
5.50163e-17
-1.69832e-24
7.2625e-25
5.50163e-17
-1.80592e-24
7.71368e-25
5.50163e-17
-1.89935e-24
8.17283e-25
5.50163e-17
-1.94994e-24
8.69054e-25
5.50163e-17
-1.98964e-24
9.21393e-25
5.50163e-17
-2.04647e-24
9.73415e-25
5.50163e-17
-2.15338e-24
1.02731e-24
5.50163e-17
-2.2894e-24
1.08842e-24
5.50163e-17
-2.44706e-24
1.14471e-24
5.50163e-17
-2.55212e-24
1.2204e-24
5.50163e-17
-2.6312e-24
1.29376e-24
5.50163e-17
-2.68353e-24
1.37811e-24
5.50163e-17
-2.79938e-24
1.45061e-24
5.50163e-17
-2.96987e-24
1.54898e-24
5.50163e-17
-3.25188e-24
1.65762e-24
5.50163e-17
-3.5834e-24
1.81774e-24
5.50163e-17
-3.99548e-24
2.00062e-24
5.50163e-17
-4.41083e-24
2.22972e-24
5.50163e-17
-4.87194e-24
2.46005e-24
5.50163e-17
-5.31386e-24
2.70814e-24
5.50163e-17
-5.78557e-24
2.92203e-24
5.50163e-17
-6.20144e-24
3.13544e-24
5.50163e-17
-6.58563e-24
3.30913e-24
5.50163e-17
-6.84729e-24
3.47298e-24
5.50163e-17
-7.00077e-24
3.58997e-24
5.50163e-17
-7.00081e-24
3.67643e-24
5.50163e-17
-6.90777e-24
3.71923e-24
5.50163e-17
-6.77149e-24
3.73651e-24
5.50163e-17
-6.68705e-24
3.73709e-24
5.50163e-17
-6.71081e-24
3.66948e-24
5.50163e-17
-6.82743e-24
3.52228e-24
5.50163e-17
-6.91511e-24
3.31504e-24
5.50163e-17
-6.8873e-24
3.11398e-24
5.50163e-17
-6.70868e-24
3.02655e-24
5.50163e-17
-6.49603e-24
3.05062e-24
5.50163e-17
-6.40139e-24
3.07796e-24
5.50163e-17
-6.45976e-24
3.03957e-24
5.50163e-17
-6.543e-24
2.92166e-24
5.50163e-17
-6.49445e-24
2.78005e-24
5.50163e-17
-6.20848e-24
2.70165e-24
5.50163e-17
-5.74756e-24
2.64337e-24
5.50163e-17
-5.25863e-24
2.50954e-24
5.50163e-17
-4.7928e-24
2.23691e-24
5.50163e-17
-4.3273e-24
1.84734e-24
5.50163e-17
-3.72676e-24
1.43363e-24
5.50163e-17
-2.92995e-24
1.09515e-24
5.50163e-17
-1.85186e-24
7.58239e-25
5.50163e-17
-3.30238e-25
6.18443e-25
1.46918e-24
7.93651e-25
6.04466e-17
1.38041e-26
3.47393e-25
6.04466e-17
4.37602e-26
2.6792e-26
6.04466e-17
4.55634e-26
1.67821e-25
6.04466e-17
6.21514e-26
9.48695e-28
6.04466e-17
4.7361e-26
8.82128e-26
6.04466e-17
4.0256e-26
5.57289e-26
6.04466e-17
3.02103e-26
4.84056e-26
6.04466e-17
2.11047e-26
4.88891e-26
6.04466e-17
1.48914e-26
4.2791e-26
6.04466e-17
9.91171e-27
4.06242e-26
6.04466e-17
5.61536e-27
3.75999e-26
6.04466e-17
6.0279e-28
3.38318e-26
6.04466e-17
-4.56534e-27
2.98018e-26
6.04466e-17
-1.204e-26
2.46778e-26
6.04466e-17
-2.13414e-26
1.94177e-26
6.04466e-17
-3.43815e-26
1.38644e-26
6.04466e-17
-5.1152e-26
7.50865e-27
6.04466e-17
-7.14271e-26
4.32083e-28
6.04466e-17
-9.45953e-26
-8.34884e-27
6.04466e-17
-1.19006e-25
-1.63298e-26
6.04466e-17
-1.42837e-25
-2.42403e-26
6.04466e-17
-1.62772e-25
-3.00396e-26
6.04466e-17
-1.80764e-25
-3.53219e-26
6.04466e-17
-1.98509e-25
-3.98683e-26
6.04466e-17
-2.19097e-25
-4.52609e-26
6.04466e-17
-2.43179e-25
-5.13998e-26
6.04466e-17
-2.70354e-25
-5.76187e-26
6.04466e-17
-2.98727e-25
-6.2303e-26
6.04466e-17
-3.2724e-25
-6.53332e-26
6.04466e-17
-3.56365e-25
-6.82644e-26
6.04466e-17
-3.86458e-25
-7.18689e-26
6.04466e-17
-4.15397e-25
-7.56605e-26
6.04466e-17
-4.42095e-25
-8.05673e-26
6.04466e-17
-4.62405e-25
-8.58084e-26
6.04466e-17
-4.83072e-25