/*--------------------------------*- C++ -*----------------------------------*\
| =========                 |                                                 |
| \\      /  F ield         | OpenFOAM: The Open Source CFD Toolbox           |
|  \\    /   O peration     | Version:  2412                                  |
|   \\  /    A nd           | Website:  www.openfoam.com                      |
|    \\/     M anipulation  |                                                 |
\*---------------------------------------------------------------------------*/
FoamFile
{
    version     2.0;
    format      ascii;
    arch        "LSB;label=32;scalar=64";
    class       volVectorField;
    location    "300";
    object      U;
}
// * * * * * * * * * * * * * * * * * * * * * * * * * * * * * * * * * * * * * //

dimensions      [0 1 -1 0 0 0 0];

internalField   nonuniform List<vector> 
40500
(
(1.4556e-05 6.45627e-15 9.88307e-14)
(1.4556e-05 -2.25638e-14 -8.51628e-14)
(1.4556e-05 2.65553e-15 6.54589e-14)
(1.4556e-05 -8.30734e-15 -5.52379e-14)
(1.4556e-05 -6.23672e-15 1.43391e-14)
(1.4556e-05 -7.94349e-15 -5.87045e-15)
(1.4556e-05 -9.31589e-15 -7.55308e-15)
(1.4556e-05 -9.92466e-15 -5.22376e-15)
(1.4556e-05 -9.61325e-15 -8.51445e-15)
(1.4556e-05 -8.55444e-15 -9.61306e-15)
(1.4556e-05 -6.63678e-15 -1.081e-14)
(1.4556e-05 -3.54961e-15 -1.15685e-14)
(1.4556e-05 5.28026e-16 -1.22295e-14)
(1.4556e-05 6.32611e-15 -1.20678e-14)
(1.4556e-05 1.32811e-14 -1.15347e-14)
(1.4556e-05 2.23618e-14 -1.03747e-14)
(1.4556e-05 3.27697e-14 -9.15703e-15)
(1.4556e-05 4.54732e-14 -7.00806e-15)
(1.4556e-05 5.87925e-14 -4.7237e-15)
(1.4556e-05 7.39998e-14 -2.10315e-15)
(1.4556e-05 8.8729e-14 -2.59357e-16)
(1.4556e-05 1.04372e-13 2.2861e-15)
(1.4556e-05 1.19447e-13 4.19665e-15)
(1.4556e-05 1.35099e-13 7.0518e-15)
(1.4556e-05 1.50248e-13 9.976e-15)
(1.4556e-05 1.6538e-13 1.30875e-14)
(1.4556e-05 1.80576e-13 1.60453e-14)
(1.4556e-05 1.96077e-13 1.88105e-14)
(1.4556e-05 2.12113e-13 2.12192e-14)
(1.4556e-05 2.29018e-13 2.36229e-14)
(1.4556e-05 2.46676e-13 2.57281e-14)
(1.4556e-05 2.65263e-13 2.80018e-14)
(1.4556e-05 2.84306e-13 2.98355e-14)
(1.4556e-05 3.05171e-13 3.27032e-14)
(1.4556e-05 3.26301e-13 3.49e-14)
(1.4556e-05 3.49838e-13 3.83816e-14)
(1.4556e-05 3.73221e-13 4.06816e-14)
(1.4556e-05 3.9747e-13 4.27281e-14)
(1.4556e-05 4.21346e-13 4.32744e-14)
(1.4556e-05 4.46399e-13 4.46752e-14)
(1.4556e-05 4.69783e-13 4.52417e-14)
(1.4556e-05 4.94487e-13 4.84867e-14)
(1.4556e-05 5.17749e-13 5.23159e-14)
(1.4556e-05 5.40596e-13 5.70379e-14)
(1.4556e-05 5.62585e-13 6.16859e-14)
(1.4556e-05 5.84464e-13 6.61948e-14)
(1.4556e-05 6.06479e-13 6.99373e-14)
(1.4556e-05 6.31865e-13 7.59703e-14)
(1.4556e-05 6.58187e-13 8.15962e-14)
(1.4556e-05 6.89217e-13 9.00575e-14)
(1.4556e-05 7.2124e-13 9.7008e-14)
(1.4556e-05 7.5636e-13 1.04073e-13)
(1.4556e-05 7.92941e-13 1.08878e-13)
(1.4556e-05 8.35018e-13 1.15878e-13)
(1.4556e-05 8.782e-13 1.21298e-13)
(1.4556e-05 9.27403e-13 1.30783e-13)
(1.4556e-05 9.7806e-13 1.40211e-13)
(1.4556e-05 1.03235e-12 1.51551e-13)
(1.4556e-05 1.08859e-12 1.62447e-13)
(1.4556e-05 1.15224e-12 1.77896e-13)
(1.4556e-05 1.21788e-12 1.91777e-13)
(1.4556e-05 1.29728e-12 2.15659e-13)
(1.4556e-05 1.38048e-12 2.38921e-13)
(1.4556e-05 1.48058e-12 2.73399e-13)
(1.4556e-05 1.58912e-12 3.05015e-13)
(1.4556e-05 1.72105e-12 3.43412e-13)
(1.4556e-05 1.86233e-12 3.698e-13)
(1.4556e-05 2.02598e-12 3.96018e-13)
(1.4556e-05 2.19064e-12 4.03645e-13)
(1.4556e-05 2.37015e-12 4.1176e-13)
(1.4556e-05 2.5427e-12 4.06312e-13)
(1.4556e-05 2.71944e-12 4.10488e-13)
(1.4556e-05 2.87668e-12 4.08116e-13)
(1.4556e-05 3.02599e-12 4.21929e-13)
(1.4556e-05 3.14564e-12 4.34035e-13)
(1.4556e-05 3.24916e-12 4.66397e-13)
(1.4556e-05 3.31983e-12 5.00026e-13)
(1.4556e-05 3.36707e-12 5.52525e-13)
(1.4556e-05 3.38741e-12 6.05972e-13)
(1.4556e-05 3.39226e-12 6.72341e-13)
(1.4556e-05 3.38356e-12 7.402e-13)
(1.4556e-05 3.3603e-12 8.08485e-13)
(1.4556e-05 3.32538e-12 8.66261e-13)
(1.4556e-05 3.2876e-12 9.09658e-13)
(1.4556e-05 3.24046e-12 9.27195e-13)
(1.4556e-05 3.19023e-12 9.3043e-13)
(1.4556e-05 3.12979e-12 9.15022e-13)
(1.4556e-05 3.05366e-12 8.8204e-13)
(1.4556e-05 2.95922e-12 8.29312e-13)
(1.4556e-05 2.84741e-12 7.6237e-13)
(1.4556e-05 2.71535e-12 6.8795e-13)
(1.4556e-05 2.5672e-12 6.27245e-13)
(1.4556e-05 2.39497e-12 5.77655e-13)
(1.4556e-05 2.18904e-12 5.28479e-13)
(1.4556e-05 1.95045e-12 4.56575e-13)
(1.4556e-05 1.66919e-12 3.5857e-13)
(1.4556e-05 1.36846e-12 2.79603e-13)
(1.4556e-05 1.06098e-12 1.44002e-13)
(1.4556e-05 8.21193e-13 1.29925e-13)
(1.4556e-05 7.38749e-13 3.03838e-13)
(2.03504e-05 1.33857e-15 1.53512e-13)
(2.03504e-05 5.14804e-15 -1.41863e-13)
(2.03504e-05 8.95696e-15 1.01091e-13)
(2.03504e-05 7.347e-15 -6.71064e-14)
(2.03504e-05 7.39382e-15 1.89929e-14)
(2.03504e-05 5.45682e-15 4.46344e-16)
(2.03504e-05 3.119e-15 -4.23128e-15)
(2.03504e-05 1.17759e-15 -2.09805e-15)
(2.03504e-05 7.43354e-16 -6.95302e-15)
(2.03504e-05 3.88154e-16 -9.109e-15)
(2.03504e-05 9.38982e-16 -1.09989e-14)
(2.03504e-05 1.56072e-15 -1.25187e-14)
(2.03504e-05 2.6238e-15 -1.31126e-14)
(2.03504e-05 3.93939e-15 -1.36768e-14)
(2.03504e-05 5.67085e-15 -1.29441e-14)
(2.03504e-05 7.63633e-15 -1.23276e-14)
(2.03504e-05 9.62588e-15 -1.08237e-14)
(2.03504e-05 1.19822e-14 -9.5501e-15)
(2.03504e-05 1.39007e-14 -7.15064e-15)
(2.03504e-05 1.67401e-14 -5.48532e-15)
(2.03504e-05 1.92839e-14 -2.83754e-15)
(2.03504e-05 2.33969e-14 -1.03424e-15)
(2.03504e-05 2.73765e-14 1.92341e-15)
(2.03504e-05 3.20905e-14 4.71689e-15)
(2.03504e-05 3.6073e-14 8.3816e-15)
(2.03504e-05 3.89826e-14 1.19538e-14)
(2.03504e-05 4.13291e-14 1.54607e-14)
(2.03504e-05 4.30926e-14 1.84948e-14)
(2.03504e-05 4.49589e-14 2.12122e-14)
(2.03504e-05 4.72246e-14 2.36239e-14)
(2.03504e-05 4.96096e-14 2.58185e-14)
(2.03504e-05 5.26066e-14 2.77614e-14)
(2.03504e-05 5.6263e-14 3.00724e-14)
(2.03504e-05 6.23929e-14 3.22261e-14)
(2.03504e-05 6.86491e-14 3.5789e-14)
(2.03504e-05 7.58438e-14 3.86311e-14)
(2.03504e-05 7.91495e-14 4.11232e-14)
(2.03504e-05 8.04079e-14 4.18046e-14)
(2.03504e-05 8.11742e-14 4.17672e-14)
(2.03504e-05 8.65995e-14 4.08009e-14)
(2.03504e-05 9.43115e-14 4.2105e-14)
(2.03504e-05 1.06124e-13 4.45816e-14)
(2.03504e-05 1.14815e-13 4.96364e-14)
(2.03504e-05 1.18901e-13 5.5094e-14)
(2.03504e-05 1.19652e-13 6.06259e-14)
(2.03504e-05 1.19078e-13 6.51367e-14)
(2.03504e-05 1.20073e-13 7.04178e-14)
(2.03504e-05 1.27548e-13 7.62122e-14)
(2.03504e-05 1.36356e-13 8.51806e-14)
(2.03504e-05 1.47903e-13 9.41028e-14)
(2.03504e-05 1.52876e-13 1.02743e-13)
(2.03504e-05 1.54869e-13 1.08902e-13)
(2.03504e-05 1.55947e-13 1.14486e-13)
(2.03504e-05 1.66695e-13 1.19381e-13)
(2.03504e-05 1.8109e-13 1.27661e-13)
(2.03504e-05 2.04064e-13 1.37271e-13)
(2.03504e-05 2.21843e-13 1.49127e-13)
(2.03504e-05 2.33413e-13 1.60747e-13)
(2.03504e-05 2.39075e-13 1.74356e-13)
(2.03504e-05 2.51232e-13 1.88032e-13)
(2.03504e-05 2.66737e-13 2.08904e-13)
(2.03504e-05 3.04597e-13 2.34241e-13)
(2.03504e-05 3.39121e-13 2.70091e-13)
(2.03504e-05 3.82076e-13 3.1017e-13)
(2.03504e-05 4.09091e-13 3.56661e-13)
(2.03504e-05 4.43085e-13 3.98358e-13)
(2.03504e-05 4.62026e-13 4.34818e-13)
(2.03504e-05 4.97315e-13 4.54548e-13)
(2.03504e-05 5.22243e-13 4.62112e-13)
(2.03504e-05 5.66785e-13 4.53299e-13)
(2.03504e-05 5.92816e-13 4.40406e-13)
(2.03504e-05 6.32493e-13 4.23365e-13)
(2.03504e-05 6.48321e-13 4.1311e-13)
(2.03504e-05 6.82611e-13 4.08992e-13)
(2.03504e-05 6.97397e-13 4.18571e-13)
(2.03504e-05 7.39042e-13 4.44991e-13)
(2.03504e-05 7.66045e-13 4.86656e-13)
(2.03504e-05 8.23129e-13 5.45937e-13)
(2.03504e-05 8.55361e-13 6.12756e-13)
(2.03504e-05 8.77818e-13 6.93076e-13)
(2.03504e-05 8.53593e-13 7.74881e-13)
(2.03504e-05 8.0108e-13 8.55245e-13)
(2.03504e-05 7.44558e-13 9.24662e-13)
(2.03504e-05 7.19748e-13 9.72834e-13)
(2.03504e-05 7.14717e-13 9.9827e-13)
(2.03504e-05 7.32216e-13 1.00419e-12)
(2.03504e-05 7.16929e-13 9.82673e-13)
(2.03504e-05 6.6208e-13 9.33962e-13)
(2.03504e-05 5.91649e-13 8.58161e-13)
(2.03504e-05 5.4355e-13 7.64291e-13)
(2.03504e-05 5.21818e-13 6.72867e-13)
(2.03504e-05 5.31194e-13 6.0532e-13)
(2.03504e-05 5.13876e-13 5.53892e-13)
(2.03504e-05 4.68971e-13 5.05946e-13)
(2.03504e-05 4.03858e-13 4.17879e-13)
(2.03504e-05 3.41276e-13 3.06201e-13)
(2.03504e-05 3.04314e-13 2.1453e-13)
(2.03504e-05 2.92298e-13 8.5968e-14)
(2.03504e-05 3.5227e-13 1.04137e-13)
(2.03504e-05 5.71543e-13 3.61015e-13)
(1.4556e-05 -6.34827e-15 9.27722e-14)
(1.4556e-05 2.23191e-14 -7.46073e-14)
(1.4556e-05 6.28412e-16 6.86624e-14)
(1.4556e-05 8.66671e-15 -4.6865e-14)
(1.4556e-05 6.53694e-15 2.03265e-14)
(1.4556e-05 7.13968e-15 3.2117e-16)
(1.4556e-05 7.67492e-15 -2.60412e-15)
(1.4556e-05 8.547e-15 -1.61933e-15)
(1.4556e-05 9.97142e-15 -6.19854e-15)
(1.4556e-05 1.11102e-14 -8.15821e-15)
(1.4556e-05 1.26733e-14 -1.03506e-14)
(1.4556e-05 1.42547e-14 -1.15786e-14)
(1.4556e-05 1.66381e-14 -1.18306e-14)
(1.4556e-05 1.92942e-14 -1.19333e-14)
(1.4556e-05 2.32825e-14 -1.16048e-14)
(1.4556e-05 2.80261e-14 -1.08019e-14)
(1.4556e-05 3.43666e-14 -9.8805e-15)
(1.4556e-05 4.1332e-14 -8.51813e-15)
(1.4556e-05 4.98637e-14 -6.97553e-15)
(1.4556e-05 5.839e-14 -5.28505e-15)
(1.4556e-05 6.78792e-14 -3.66923e-15)
(1.4556e-05 7.73119e-14 -1.76302e-15)
(1.4556e-05 8.72901e-14 2.24304e-16)
(1.4556e-05 9.64608e-14 2.73804e-15)
(1.4556e-05 1.0572e-13 5.5307e-15)
(1.4556e-05 1.14643e-13 8.52735e-15)
(1.4556e-05 1.23821e-13 1.13058e-14)
(1.4556e-05 1.33357e-13 1.37289e-14)
(1.4556e-05 1.43411e-13 1.58119e-14)
(1.4556e-05 1.53914e-13 1.763e-14)
(1.4556e-05 1.64852e-13 1.9252e-14)
(1.4556e-05 1.76207e-13 2.08001e-14)
(1.4556e-05 1.88218e-13 2.23957e-14)
(1.4556e-05 2.00286e-13 2.45906e-14)
(1.4556e-05 2.13331e-13 2.70358e-14)
(1.4556e-05 2.26295e-13 2.96253e-14)
(1.4556e-05 2.40161e-13 3.11887e-14)
(1.4556e-05 2.54536e-13 3.16029e-14)
(1.4556e-05 2.69769e-13 3.10512e-14)
(1.4556e-05 2.84653e-13 3.08067e-14)
(1.4556e-05 2.99716e-13 3.14989e-14)
(1.4556e-05 3.1314e-13 3.42276e-14)
(1.4556e-05 3.25838e-13 3.80982e-14)
(1.4556e-05 3.37484e-13 4.27366e-14)
(1.4556e-05 3.4926e-13 4.69423e-14)
(1.4556e-05 3.61332e-13 5.06677e-14)
(1.4556e-05 3.74377e-13 5.45199e-14)
(1.4556e-05 3.87322e-13 5.98888e-14)
(1.4556e-05 4.01404e-13 6.65941e-14)
(1.4556e-05 4.15575e-13 7.42748e-14)
(1.4556e-05 4.31436e-13 8.0547e-14)
(1.4556e-05 4.4889e-13 8.52268e-14)
(1.4556e-05 4.6859e-13 8.88727e-14)
(1.4556e-05 4.89097e-13 9.3527e-14)
(1.4556e-05 5.11421e-13 9.9919e-14)
(1.4556e-05 5.34153e-13 1.08896e-13)
(1.4556e-05 5.58602e-13 1.18306e-13)
(1.4556e-05 5.84551e-13 1.28416e-13)
(1.4556e-05 6.13736e-13 1.38872e-13)
(1.4556e-05 6.44891e-13 1.52011e-13)
(1.4556e-05 6.80654e-13 1.69173e-13)
(1.4556e-05 7.1857e-13 1.93244e-13)
(1.4556e-05 7.61165e-13 2.225e-13)
(1.4556e-05 8.07095e-13 2.58007e-13)
(1.4556e-05 8.60434e-13 2.94225e-13)
(1.4556e-05 9.21009e-13 3.29485e-13)
(1.4556e-05 9.93352e-13 3.56281e-13)
(1.4556e-05 1.07589e-12 3.74005e-13)
(1.4556e-05 1.16944e-12 3.78186e-13)
(1.4556e-05 1.26739e-12 3.74697e-13)
(1.4556e-05 1.36666e-12 3.63675e-13)
(1.4556e-05 1.46124e-12 3.53914e-13)
(1.4556e-05 1.54645e-12 3.45549e-13)
(1.4556e-05 1.61803e-12 3.46184e-13)
(1.4556e-05 1.66996e-12 3.55884e-13)
(1.4556e-05 1.7037e-12 3.81818e-13)
(1.4556e-05 1.71425e-12 4.21223e-13)
(1.4556e-05 1.71275e-12 4.75097e-13)
(1.4556e-05 1.69509e-12 5.34771e-13)
(1.4556e-05 1.6731e-12 6.00325e-13)
(1.4556e-05 1.63961e-12 6.63967e-13)
(1.4556e-05 1.59994e-12 7.26525e-13)
(1.4556e-05 1.5571e-12 7.81197e-13)
(1.4556e-05 1.51537e-12 8.22503e-13)
(1.4556e-05 1.47615e-12 8.46419e-13)
(1.4556e-05 1.44312e-12 8.50319e-13)
(1.4556e-05 1.40711e-12 8.28447e-13)
(1.4556e-05 1.36952e-12 7.8459e-13)
(1.4556e-05 1.32927e-12 7.20929e-13)
(1.4556e-05 1.28565e-12 6.47052e-13)
(1.4556e-05 1.23298e-12 5.77479e-13)
(1.4556e-05 1.17008e-12 5.22853e-13)
(1.4556e-05 1.08457e-12 4.8149e-13)
(1.4556e-05 9.88539e-13 4.40277e-13)
(1.4556e-05 8.78583e-13 3.73893e-13)
(1.4556e-05 7.69407e-13 2.88418e-13)
(1.4556e-05 6.5105e-13 2.16957e-13)
(1.4556e-05 5.35506e-13 1.03689e-13)
(1.4556e-05 4.17986e-13 1.14439e-13)
(1.4556e-05 3.51118e-13 3.0782e-13)
(1.53524e-05 1.25767e-15 9.72211e-14)
(1.53524e-05 -4.07816e-14 -9.26818e-14)
(1.53524e-05 -1.55926e-14 6.01671e-14)
(1.53524e-05 -4.24666e-14 -6.24164e-14)
(1.53524e-05 -4.00496e-14 8.40714e-15)
(1.53524e-05 -5.00853e-14 -1.13137e-14)
(1.53524e-05 -5.43987e-14 -1.15592e-14)
(1.53524e-05 -5.67744e-14 -8.23959e-15)
(1.53524e-05 -5.85474e-14 -1.03296e-14)
(1.53524e-05 -5.76041e-14 -1.00871e-14)
(1.53524e-05 -5.49953e-14 -1.08631e-14)
(1.53524e-05 -5.01072e-14 -1.14959e-14)
(1.53524e-05 -4.2763e-14 -1.17728e-14)
(1.53524e-05 -3.23181e-14 -1.18507e-14)
(1.53524e-05 -1.8373e-14 -1.1274e-14)
(1.53524e-05 -4.58415e-16 -1.04318e-14)
(1.53524e-05 2.13827e-14 -8.31405e-15)
(1.53524e-05 4.70538e-14 -5.13677e-15)
(1.53524e-05 7.61928e-14 -1.36351e-15)
(1.53524e-05 1.07468e-13 2.78507e-15)
(1.53524e-05 1.40159e-13 7.38641e-15)
(1.53524e-05 1.7267e-13 1.14462e-14)
(1.53524e-05 2.04667e-13 1.48577e-14)
(1.53524e-05 2.35414e-13 1.71111e-14)
(1.53524e-05 2.65252e-13 1.86353e-14)
(1.53524e-05 2.94565e-13 1.9625e-14)
(1.53524e-05 3.24087e-13 2.06647e-14)
(1.53524e-05 3.54611e-13 2.20197e-14)
(1.53524e-05 3.86571e-13 2.39342e-14)
(1.53524e-05 4.20201e-13 2.63373e-14)
(1.53524e-05 4.55512e-13 2.92235e-14)
(1.53524e-05 4.92409e-13 3.23229e-14)
(1.53524e-05 5.30828e-13 3.55487e-14)
(1.53524e-05 5.70667e-13 3.86455e-14)
(1.53524e-05 6.12135e-13 4.1705e-14)
(1.53524e-05 6.55393e-13 4.48023e-14)
(1.53524e-05 7.0144e-13 4.8548e-14)
(1.53524e-05 7.50605e-13 5.30721e-14)
(1.53524e-05 8.02806e-13 5.8663e-14)
(1.53524e-05 8.56458e-13 6.43374e-14)
(1.53524e-05 9.10169e-13 6.937e-14)
(1.53524e-05 9.61409e-13 7.19168e-14)
(1.53524e-05 1.01112e-12 7.30223e-14)
(1.53524e-05 1.05901e-12 7.29491e-14)
(1.53524e-05 1.10685e-12 7.35424e-14)
(1.53524e-05 1.15592e-12 7.53765e-14)
(1.53524e-05 1.20725e-12 7.87832e-14)
(1.53524e-05 1.26118e-12 8.33146e-14)
(1.53524e-05 1.31862e-12 8.89004e-14)
(1.53524e-05 1.38008e-12 9.53834e-14)
(1.53524e-05 1.44811e-12 1.03746e-13)
(1.53524e-05 1.52415e-12 1.14272e-13)
(1.53524e-05 1.61037e-12 1.27251e-13)
(1.53524e-05 1.70541e-12 1.40746e-13)
(1.53524e-05 1.80759e-12 1.54067e-13)
(1.53524e-05 1.91319e-12 1.63704e-13)
(1.53524e-05 2.02613e-12 1.7239e-13)
(1.53524e-05 2.14648e-12 1.81387e-13)
(1.53524e-05 2.27889e-12 1.95122e-13)
(1.53524e-05 2.42309e-12 2.12696e-13)
(1.53524e-05 2.58001e-12 2.32784e-13)
(1.53524e-05 2.7442e-12 2.48997e-13)
(1.53524e-05 2.92225e-12 2.64187e-13)
(1.53524e-05 3.11595e-12 2.79911e-13)
(1.53524e-05 3.33663e-12 3.0391e-13)
(1.53524e-05 3.58652e-12 3.37514e-13)
(1.53524e-05 3.8724e-12 3.83595e-13)
(1.53524e-05 4.18394e-12 4.3142e-13)
(1.53524e-05 4.52298e-12 4.82132e-13)
(1.53524e-05 4.87269e-12 5.25946e-13)
(1.53524e-05 5.23531e-12 5.69881e-13)
(1.53524e-05 5.59529e-12 6.08839e-13)
(1.53524e-05 5.9542e-12 6.51514e-13)
(1.53524e-05 6.29436e-12 6.91538e-13)
(1.53524e-05 6.61705e-12 7.35769e-13)
(1.53524e-05 6.9033e-12 7.74893e-13)
(1.53524e-05 7.15309e-12 8.13921e-13)
(1.53524e-05 7.3489e-12 8.41793e-13)
(1.53524e-05 7.50282e-12 8.66541e-13)
(1.53524e-05 7.60544e-12 8.80557e-13)
(1.53524e-05 7.67599e-12 8.96043e-13)
(1.53524e-05 7.71291e-12 9.11788e-13)
(1.53524e-05 7.7223e-12 9.31498e-13)
(1.53524e-05 7.70122e-12 9.48966e-13)
(1.53524e-05 7.65067e-12 9.60612e-13)
(1.53524e-05 7.56309e-12 9.56391e-13)
(1.53524e-05 7.4497e-12 9.42504e-13)
(1.53524e-05 7.29992e-12 9.15936e-13)
(1.53524e-05 7.11229e-12 8.80211e-13)
(1.53524e-05 6.87939e-12 8.33933e-13)
(1.53524e-05 6.59557e-12 7.79829e-13)
(1.53524e-05 6.25469e-12 7.19902e-13)
(1.53524e-05 5.85948e-12 6.64444e-13)
(1.53524e-05 5.39704e-12 6.12382e-13)
(1.53524e-05 4.85299e-12 5.52677e-13)
(1.53524e-05 4.22722e-12 4.93234e-13)
(1.53524e-05 3.52902e-12 4.52558e-13)
(1.53524e-05 2.80528e-12 3.40254e-13)
(1.53524e-05 2.20978e-12 2.60811e-13)
(1.53524e-05 1.98744e-12 3.55881e-13)
(2.58934e-05 1.25117e-14 1.70262e-13)
(2.58934e-05 -2.5672e-14 -1.34595e-13)
(2.58934e-05 -4.9792e-15 1.0144e-13)
(2.58934e-05 -2.99087e-14 -8.26561e-14)
(2.58934e-05 -2.13082e-14 1.61042e-14)
(2.58934e-05 -2.99165e-14 -1.37921e-14)
(2.58934e-05 -3.39221e-14 -1.38737e-14)
(2.58934e-05 -3.76045e-14 -1.13331e-14)
(2.58934e-05 -4.077e-14 -1.48219e-14)
(2.58934e-05 -4.24313e-14 -1.53806e-14)
(2.58934e-05 -4.19659e-14 -1.64305e-14)
(2.58934e-05 -3.95776e-14 -1.7514e-14)
(2.58934e-05 -3.44878e-14 -1.72969e-14)
(2.58934e-05 -2.7198e-14 -1.66749e-14)
(2.58934e-05 -1.78261e-14 -1.4488e-14)
(2.58934e-05 -7.13352e-15 -1.21849e-14)
(2.58934e-05 5.52797e-15 -7.93912e-15)
(2.58934e-05 1.95408e-14 -2.28737e-15)
(2.58934e-05 3.48713e-14 4.38649e-15)
(2.58934e-05 5.0787e-14 1.15661e-14)
(2.58934e-05 6.75057e-14 1.91232e-14)
(2.58934e-05 8.47158e-14 2.63733e-14)
(2.58934e-05 1.02925e-13 3.26818e-14)
(2.58934e-05 1.23115e-13 3.81945e-14)
(2.58934e-05 1.45992e-13 4.28808e-14)
(2.58934e-05 1.70617e-13 4.73657e-14)
(2.58934e-05 1.95702e-13 5.18515e-14)
(2.58934e-05 2.20156e-13 5.68039e-14)
(2.58934e-05 2.4383e-13 6.2177e-14)
(2.58934e-05 2.67198e-13 6.83302e-14)
(2.58934e-05 2.9041e-13 7.47752e-14)
(2.58934e-05 3.14021e-13 8.17593e-14)
(2.58934e-05 3.37651e-13 8.85683e-14)
(2.58934e-05 3.62288e-13 9.57107e-14)
(2.58934e-05 3.8711e-13 1.02588e-13)
(2.58934e-05 4.14025e-13 1.10546e-13)
(2.58934e-05 4.42238e-13 1.18938e-13)
(2.58934e-05 4.71235e-13 1.28576e-13)
(2.58934e-05 4.97614e-13 1.38338e-13)
(2.58934e-05 5.20773e-13 1.48186e-13)
(2.58934e-05 5.401e-13 1.55914e-13)
(2.58934e-05 5.6249e-13 1.63216e-13)
(2.58934e-05 5.92293e-13 1.68654e-13)
(2.58934e-05 6.29698e-13 1.74584e-13)
(2.58934e-05 6.70382e-13 1.80878e-13)
(2.58934e-05 7.11053e-13 1.88691e-13)
(2.58934e-05 7.49569e-13 1.97418e-13)
(2.58934e-05 7.88262e-13 2.08092e-13)
(2.58934e-05 8.26858e-13 2.19617e-13)
(2.58934e-05 8.70246e-13 2.34307e-13)
(2.58934e-05 9.17472e-13 2.50613e-13)
(2.58934e-05 9.69255e-13 2.70196e-13)
(2.58934e-05 1.01993e-12 2.91001e-13)
(2.58934e-05 1.0705e-12 3.14067e-13)
(2.58934e-05 1.11858e-12 3.34522e-13)
(2.58934e-05 1.17703e-12 3.56649e-13)
(2.58934e-05 1.25096e-12 3.77066e-13)
(2.58934e-05 1.34173e-12 4.02658e-13)
(2.58934e-05 1.43707e-12 4.31242e-13)
(2.58934e-05 1.53339e-12 4.65723e-13)
(2.58934e-05 1.62392e-12 4.98489e-13)
(2.58934e-05 1.72917e-12 5.35664e-13)
(2.58934e-05 1.85718e-12 5.71015e-13)
(2.58934e-05 2.02003e-12 6.16504e-13)
(2.58934e-05 2.19701e-12 6.68417e-13)
(2.58934e-05 2.38521e-12 7.37001e-13)
(2.58934e-05 2.56359e-12 8.10378e-13)
(2.58934e-05 2.74441e-12 8.94422e-13)
(2.58934e-05 2.92218e-12 9.71001e-13)
(2.58934e-05 3.11295e-12 1.05086e-12)
(2.58934e-05 3.30852e-12 1.12116e-12)
(2.58934e-05 3.51766e-12 1.197e-12)
(2.58934e-05 3.72142e-12 1.26677e-12)
(2.58934e-05 3.92527e-12 1.34476e-12)
(2.58934e-05 4.10785e-12 1.41494e-12)
(2.58934e-05 4.28149e-12 1.49129e-12)
(2.58934e-05 4.42803e-12 1.55249e-12)
(2.58934e-05 4.56956e-12 1.61619e-12)
(2.58934e-05 4.69179e-12 1.66257e-12)
(2.58934e-05 4.82718e-12 1.71606e-12)
(2.58934e-05 4.96901e-12 1.75852e-12)
(2.58934e-05 5.11782e-12 1.80621e-12)
(2.58934e-05 5.21352e-12 1.84586e-12)
(2.58934e-05 5.24148e-12 1.87432e-12)
(2.58934e-05 5.1906e-12 1.87974e-12)
(2.58934e-05 5.10803e-12 1.87509e-12)
(2.58934e-05 5.02022e-12 1.84368e-12)
(2.58934e-05 4.93584e-12 1.79906e-12)
(2.58934e-05 4.82212e-12 1.73077e-12)
(2.58934e-05 4.65323e-12 1.64007e-12)
(2.58934e-05 4.41927e-12 1.53215e-12)
(2.58934e-05 4.14703e-12 1.42314e-12)
(2.58934e-05 3.8539e-12 1.31262e-12)
(2.58934e-05 3.52757e-12 1.20055e-12)
(2.58934e-05 3.13446e-12 1.07331e-12)
(2.58934e-05 2.6498e-12 9.24189e-13)
(2.58934e-05 2.14245e-12 8.05704e-13)
(2.58934e-05 1.73154e-12 5.86664e-13)
(2.58934e-05 1.73834e-12 4.46477e-13)
(2.58934e-05 2.5176e-12 5.79002e-13)
(3.16214e-05 1.24773e-14 1.81394e-13)
(3.16214e-05 -2.59875e-14 -1.31364e-13)
(3.16214e-05 -6.98561e-15 1.18553e-13)
(3.16214e-05 -4.1979e-14 -8.13661e-14)
(3.16214e-05 -2.55241e-14 3.16325e-14)
(3.16214e-05 -3.75935e-14 -4.81829e-15)
(3.16214e-05 -4.18295e-14 -6.66222e-15)
(3.16214e-05 -4.46286e-14 -3.53304e-15)
(3.16214e-05 -4.79305e-14 -9.66088e-15)
(3.16214e-05 -4.89572e-14 -1.05972e-14)
(3.16214e-05 -4.79859e-14 -1.35011e-14)
(3.16214e-05 -4.43061e-14 -1.54812e-14)
(3.16214e-05 -3.77897e-14 -1.68937e-14)
(3.16214e-05 -2.86807e-14 -1.75093e-14)
(3.16214e-05 -1.71037e-14 -1.76948e-14)
(3.16214e-05 -3.528e-15 -1.69733e-14)
(3.16214e-05 1.23892e-14 -1.55757e-14)
(3.16214e-05 3.02992e-14 -1.33034e-14)
(3.16214e-05 4.92316e-14 -1.03954e-14)
(3.16214e-05 6.92669e-14 -7.17021e-15)
(3.16214e-05 9.13884e-14 -3.72866e-15)
(3.16214e-05 1.14459e-13 -7.09789e-16)
(3.16214e-05 1.39406e-13 2.26351e-15)
(3.16214e-05 1.66013e-13 4.58272e-15)
(3.16214e-05 1.95028e-13 6.91746e-15)
(3.16214e-05 2.25669e-13 9.05329e-15)
(3.16214e-05 2.56359e-13 1.12985e-14)
(3.16214e-05 2.86166e-13 1.35396e-14)
(3.16214e-05 3.14889e-13 1.61806e-14)
(3.16214e-05 3.42995e-13 1.87068e-14)
(3.16214e-05 3.71327e-13 2.1689e-14)
(3.16214e-05 3.99841e-13 2.41843e-14)
(3.16214e-05 4.29338e-13 2.70042e-14)
(3.16214e-05 4.59631e-13 2.88788e-14)
(3.16214e-05 4.92872e-13 3.15866e-14)
(3.16214e-05 5.27974e-13 3.35993e-14)
(3.16214e-05 5.648e-13 3.6679e-14)
(3.16214e-05 5.99776e-13 3.91333e-14)
(3.16214e-05 6.31996e-13 4.20831e-14)
(3.16214e-05 6.60823e-13 4.30557e-14)
(3.16214e-05 6.91108e-13 4.49403e-14)
(3.16214e-05 7.25515e-13 4.45518e-14)
(3.16214e-05 7.68271e-13 4.56854e-14)
(3.16214e-05 8.17278e-13 4.67289e-14)
(3.16214e-05 8.67241e-13 4.9202e-14)
(3.16214e-05 9.14677e-13 5.22816e-14)
(3.16214e-05 9.59904e-13 5.72292e-14)
(3.16214e-05 1.00456e-12 6.19508e-14)
(3.16214e-05 1.05502e-12 6.95837e-14)
(3.16214e-05 1.11062e-12 7.69619e-14)
(3.16214e-05 1.17185e-12 8.74371e-14)
(3.16214e-05 1.23281e-12 9.73096e-14)
(3.16214e-05 1.29364e-12 1.09645e-13)
(3.16214e-05 1.35362e-12 1.18693e-13)
(3.16214e-05 1.42211e-12 1.30894e-13)
(3.16214e-05 1.50224e-12 1.38044e-13)
(3.16214e-05 1.6004e-12 1.49661e-13)
(3.16214e-05 1.71111e-12 1.6061e-13)
(3.16214e-05 1.82738e-12 1.78027e-13)
(3.16214e-05 1.94095e-12 1.94386e-13)
(3.16214e-05 2.06183e-12 2.19094e-13)
(3.16214e-05 2.19656e-12 2.37793e-13)
(3.16214e-05 2.36668e-12 2.66716e-13)
(3.16214e-05 2.56444e-12 2.93674e-13)
(3.16214e-05 2.78732e-12 3.35591e-13)
(3.16214e-05 3.0114e-12 3.75611e-13)
(3.16214e-05 3.2364e-12 4.29004e-13)
(3.16214e-05 3.45088e-12 4.66116e-13)
(3.16214e-05 3.67367e-12 5.06994e-13)
(3.16214e-05 3.89934e-12 5.259e-13)
(3.16214e-05 4.14427e-12 5.50775e-13)
(3.16214e-05 4.39131e-12 5.60986e-13)
(3.16214e-05 4.64735e-12 5.8772e-13)
(3.16214e-05 4.88818e-12 6.05938e-13)
(3.16214e-05 5.12268e-12 6.47679e-13)
(3.16214e-05 5.32943e-12 6.80108e-13)
(3.16214e-05 5.52924e-12 7.36993e-13)
(3.16214e-05 5.70923e-12 7.79737e-13)
(3.16214e-05 5.88503e-12 8.49042e-13)
(3.16214e-05 6.0527e-12 9.07647e-13)
(3.16214e-05 6.21683e-12 9.85567e-13)
(3.16214e-05 6.3578e-12 1.05466e-12)
(3.16214e-05 6.45992e-12 1.1259e-12)
(3.16214e-05 6.47475e-12 1.17299e-12)
(3.16214e-05 6.42512e-12 1.20864e-12)
(3.16214e-05 6.32933e-12 1.20834e-12)
(3.16214e-05 6.21941e-12 1.1995e-12)
(3.16214e-05 6.09298e-12 1.16112e-12)
(3.16214e-05 5.92249e-12 1.09842e-12)
(3.16214e-05 5.68835e-12 1.01203e-12)
(3.16214e-05 5.3991e-12 9.20392e-13)
(3.16214e-05 5.07237e-12 8.2772e-13)
(3.16214e-05 4.72794e-12 7.52006e-13)
(3.16214e-05 4.34271e-12 6.79689e-13)
(3.16214e-05 3.86551e-12 5.81937e-13)
(3.16214e-05 3.29433e-12 4.83031e-13)
(3.16214e-05 2.68833e-12 4.11095e-13)
(3.16214e-05 2.20813e-12 2.64962e-13)
(3.16214e-05 2.16992e-12 2.37401e-13)
(3.16214e-05 2.96553e-12 4.59012e-13)
(3.84477e-05 5.35761e-14 2.18375e-13)
(3.84477e-05 -9.15635e-14 -1.25611e-13)
(3.84477e-05 1.32379e-14 1.35442e-13)
(3.84477e-05 -8.38265e-14 -8.80427e-14)
(3.84477e-05 -3.54592e-14 4.03924e-14)
(3.84477e-05 -5.18103e-14 -2.37766e-15)
(3.84477e-05 -5.38456e-14 -3.18836e-15)
(3.84477e-05 -5.14419e-14 -2.06735e-15)
(3.84477e-05 -5.21855e-14 -9.6752e-15)
(3.84477e-05 -4.94498e-14 -1.27132e-14)
(3.84477e-05 -4.54912e-14 -1.66512e-14)
(3.84477e-05 -3.8486e-14 -2.00775e-14)
(3.84477e-05 -2.86389e-14 -2.19887e-14)
(3.84477e-05 -1.51739e-14 -2.32996e-14)
(3.84477e-05 1.27232e-15 -2.37423e-14)
(3.84477e-05 2.1471e-14 -2.3336e-14)
(3.84477e-05 4.49075e-14 -2.21951e-14)
(3.84477e-05 7.1564e-14 -2.02689e-14)
(3.84477e-05 9.99029e-14 -1.78238e-14)
(3.84477e-05 1.31497e-13 -1.46097e-14)
(3.84477e-05 1.64962e-13 -1.19152e-14)
(3.84477e-05 2.00033e-13 -8.76631e-15)
(3.84477e-05 2.36457e-13 -6.06028e-15)
(3.84477e-05 2.73906e-13 -2.94107e-15)
(3.84477e-05 3.12383e-13 4.29637e-17)
(3.84477e-05 3.51628e-13 2.96524e-15)
(3.84477e-05 3.90678e-13 5.99388e-15)
(3.84477e-05 4.29462e-13 8.99737e-15)
(3.84477e-05 4.6796e-13 1.189e-14)
(3.84477e-05 5.0706e-13 1.48421e-14)
(3.84477e-05 5.47174e-13 1.73835e-14)
(3.84477e-05 5.88476e-13 1.9951e-14)
(3.84477e-05 6.31603e-13 2.18058e-14)
(3.84477e-05 6.77351e-13 2.41292e-14)
(3.84477e-05 7.27137e-13 2.54189e-14)
(3.84477e-05 7.79989e-13 2.76676e-14)
(3.84477e-05 8.34049e-13 2.90423e-14)
(3.84477e-05 8.86107e-13 3.05387e-14)
(3.84477e-05 9.36168e-13 3.06494e-14)
(3.84477e-05 9.84951e-13 3.10992e-14)
(3.84477e-05 1.03699e-12 2.97234e-14)
(3.84477e-05 1.09253e-12 3.04928e-14)
(3.84477e-05 1.1535e-12 3.16355e-14)
(3.84477e-05 1.21568e-12 3.40546e-14)
(3.84477e-05 1.27638e-12 3.77849e-14)
(3.84477e-05 1.33401e-12 4.27237e-14)
(3.84477e-05 1.39066e-12 4.78932e-14)
(3.84477e-05 1.45084e-12 5.54414e-14)
(3.84477e-05 1.51998e-12 6.22226e-14)
(3.84477e-05 1.59681e-12 7.17505e-14)
(3.84477e-05 1.67917e-12 8.04193e-14)
(3.84477e-05 1.7614e-12 9.0578e-14)
(3.84477e-05 1.84619e-12 9.87667e-14)
(3.84477e-05 1.93653e-12 1.08913e-13)
(3.84477e-05 2.04222e-12 1.1512e-13)
(3.84477e-05 2.16085e-12 1.25062e-13)
(3.84477e-05 2.29682e-12 1.34378e-13)
(3.84477e-05 2.43958e-12 1.47576e-13)
(3.84477e-05 2.58839e-12 1.62476e-13)
(3.84477e-05 2.74087e-12 1.84604e-13)
(3.84477e-05 2.91131e-12 2.04929e-13)
(3.84477e-05 3.10397e-12 2.35657e-13)
(3.84477e-05 3.33572e-12 2.64546e-13)
(3.84477e-05 3.59419e-12 3.0534e-13)
(3.84477e-05 3.88113e-12 3.44524e-13)
(3.84477e-05 4.18077e-12 3.94364e-13)
(3.84477e-05 4.50218e-12 4.32907e-13)
(3.84477e-05 4.83239e-12 4.71966e-13)
(3.84477e-05 5.19033e-12 4.8655e-13)
(3.84477e-05 5.55778e-12 4.97981e-13)
(3.84477e-05 5.94487e-12 4.90693e-13)
(3.84477e-05 6.32319e-12 4.92524e-13)
(3.84477e-05 6.69834e-12 4.88143e-13)
(3.84477e-05 7.03899e-12 5.06706e-13)
(3.84477e-05 7.3589e-12 5.27251e-13)
(3.84477e-05 7.63055e-12 5.78329e-13)
(3.84477e-05 7.87946e-12 6.3278e-13)
(3.84477e-05 8.07539e-12 7.15647e-13)
(3.84477e-05 8.25267e-12 8.01339e-13)
(3.84477e-05 8.37893e-12 9.13585e-13)
(3.84477e-05 8.48123e-12 1.03296e-12)
(3.84477e-05 8.5253e-12 1.15185e-12)
(3.84477e-05 8.53668e-12 1.25123e-12)
(3.84477e-05 8.49175e-12 1.33312e-12)
(3.84477e-05 8.411e-12 1.37573e-12)
(3.84477e-05 8.28508e-12 1.39824e-12)
(3.84477e-05 8.13774e-12 1.38537e-12)
(3.84477e-05 7.94111e-12 1.33948e-12)
(3.84477e-05 7.69261e-12 1.25801e-12)
(3.84477e-05 7.38946e-12 1.15124e-12)
(3.84477e-05 7.04011e-12 1.03385e-12)
(3.84477e-05 6.64426e-12 9.34853e-13)
(3.84477e-05 6.20574e-12 8.48892e-13)
(3.84477e-05 5.68998e-12 7.62443e-13)
(3.84477e-05 5.06543e-12 6.56419e-13)
(3.84477e-05 4.35834e-12 5.26329e-13)
(3.84477e-05 3.61813e-12 4.41049e-13)
(3.84477e-05 2.92986e-12 2.67807e-13)
(3.84477e-05 2.63395e-12 2.40049e-13)
(3.84477e-05 3.1438e-12 4.24312e-13)
(5.72847e-05 2.23938e-14 2.30282e-13)
(5.72847e-05 3.81713e-14 2.24536e-14)
(5.72847e-05 4.50678e-14 9.69728e-14)
(5.72847e-05 4.69888e-14 -1.82689e-14)
(5.72847e-05 5.62675e-14 4.71018e-14)
(5.72847e-05 4.67674e-14 2.11639e-14)
(5.72847e-05 4.36129e-14 2.52073e-14)
(5.72847e-05 3.63794e-14 3.07876e-14)
(5.72847e-05 2.97917e-14 3.41252e-14)
(5.72847e-05 2.02287e-14 3.80682e-14)
(5.72847e-05 1.10251e-14 4.13958e-14)
(5.72847e-05 -8.66265e-16 4.23614e-14)
(5.72847e-05 -1.43368e-14 4.09823e-14)
(5.72847e-05 -3.26658e-14 3.89131e-14)
(5.72847e-05 -5.67471e-14 3.54267e-14)
(5.72847e-05 -8.91736e-14 3.38762e-14)
(5.72847e-05 -1.29694e-13 3.03993e-14)
(5.72847e-05 -1.77471e-13 2.84698e-14)
(5.72847e-05 -2.31565e-13 2.15425e-14)
(5.72847e-05 -2.88228e-13 1.83205e-14)
(5.72847e-05 -3.46068e-13 1.11433e-14)
(5.72847e-05 -3.98231e-13 1.07078e-14)
(5.72847e-05 -4.45973e-13 4.8879e-15)
(5.72847e-05 -4.86993e-13 2.1054e-15)
(5.72847e-05 -5.26892e-13 -6.50778e-15)
(5.72847e-05 -5.69218e-13 -1.79851e-14)
(5.72847e-05 -6.16245e-13 -2.86397e-14)
(5.72847e-05 -6.70939e-13 -3.72209e-14)
(5.72847e-05 -7.32166e-13 -4.23518e-14)
(5.72847e-05 -7.97702e-13 -4.50121e-14)
(5.72847e-05 -8.68046e-13 -4.78159e-14)
(5.72847e-05 -9.40196e-13 -4.84361e-14)
(5.72847e-05 -1.01324e-12 -5.01987e-14)
(5.72847e-05 -1.07939e-12 -4.71524e-14)
(5.72847e-05 -1.14425e-12 -5.48407e-14)
(5.72847e-05 -1.20962e-12 -5.86138e-14)
(5.72847e-05 -1.29681e-12 -7.03318e-14)
(5.72847e-05 -1.40483e-12 -7.40096e-14)
(5.72847e-05 -1.52453e-12 -7.38718e-14)
(5.72847e-05 -1.62793e-12 -6.13858e-14)
(5.72847e-05 -1.71079e-12 -6.12455e-14)
(5.72847e-05 -1.76095e-12 -5.54109e-14)
(5.72847e-05 -1.80618e-12 -6.8228e-14)
(5.72847e-05 -1.8619e-12 -9.13138e-14)
(5.72847e-05 -1.9365e-12 -1.14904e-13)
(5.72847e-05 -2.02875e-12 -1.30325e-13)
(5.72847e-05 -2.12696e-12 -1.39604e-13)
(5.72847e-05 -2.20737e-12 -1.36938e-13)
(5.72847e-05 -2.28023e-12 -1.57159e-13)
(5.72847e-05 -2.34959e-12 -1.73465e-13)
(5.72847e-05 -2.45851e-12 -2.03963e-13)
(5.72847e-05 -2.6061e-12 -2.18207e-13)
(5.72847e-05 -2.78277e-12 -2.2937e-13)
(5.72847e-05 -2.93644e-12 -2.19675e-13)
(5.72847e-05 -3.07292e-12 -2.3604e-13)
(5.72847e-05 -3.17064e-12 -2.3426e-13)
(5.72847e-05 -3.28994e-12 -2.52607e-13)
(5.72847e-05 -3.4491e-12 -2.70284e-13)
(5.72847e-05 -3.66602e-12 -2.99394e-13)
(5.72847e-05 -3.89415e-12 -3.08402e-13)
(5.72847e-05 -4.12674e-12 -3.52386e-13)
(5.72847e-05 -4.28612e-12 -3.52496e-13)
(5.72847e-05 -4.45932e-12 -4.19108e-13)
(5.72847e-05 -4.65372e-12 -4.64722e-13)
(5.72847e-05 -4.98023e-12 -5.77243e-13)
(5.72847e-05 -5.39839e-12 -6.3052e-13)
(5.72847e-05 -5.97454e-12 -7.2235e-13)
(5.72847e-05 -6.58982e-12 -7.03421e-13)