/*--------------------------------*- C++ -*----------------------------------*\
| =========                 |                                                 |
| \\      /  F ield         | OpenFOAM: The Open Source CFD Toolbox           |
|  \\    /   O peration     | Version:  2412                                  |
|   \\  /    A nd           | Website:  www.openfoam.com                      |
|    \\/     M anipulation  |                                                 |
\*---------------------------------------------------------------------------*/
FoamFile
{
    version     2.0;
    format      ascii;
    arch        "LSB;label=32;scalar=64";
    class       volVectorField;
    location    "300";
    object      U;
}
// * * * * * * * * * * * * * * * * * * * * * * * * * * * * * * * * * * * * * //

dimensions      [0 1 -1 0 0 0 0];

internalField   nonuniform List<vector> 
3700
(
(5.67752e-06 2.85634e-12 2.12643e-11)
(5.67751e-06 -1.31957e-12 -1.20051e-11)
(5.67752e-06 1.66502e-12 4.16298e-12)
(5.67752e-06 3.23159e-13 -2.97924e-12)
(5.67752e-06 5.15175e-13 -3.49975e-13)
(5.67752e-06 4.37314e-13 -8.9671e-14)
(5.67752e-06 2.53397e-13 -6.68409e-13)
(5.67752e-06 2.36165e-13 -2.57929e-13)
(5.67752e-06 1.62805e-13 -2.23637e-13)
(5.67752e-06 1.1695e-13 -2.44794e-13)
(5.67752e-06 1.00946e-13 -1.81429e-13)
(5.67752e-06 8.21064e-14 -1.54192e-13)
(5.67752e-06 7.03212e-14 -1.33291e-13)
(5.67752e-06 6.05229e-14 -1.15734e-13)
(5.67753e-06 5.24716e-14 -9.88714e-14)
(5.67753e-06 4.58978e-14 -8.71596e-14)
(5.67753e-06 4.04947e-14 -7.67921e-14)
(5.67753e-06 3.63135e-14 -6.84651e-14)
(5.67753e-06 3.22267e-14 -6.38582e-14)
(5.67753e-06 2.98341e-14 -5.72773e-14)
(5.67753e-06 2.73557e-14 -5.36253e-14)
(5.67753e-06 2.54203e-14 -4.78682e-14)
(5.67753e-06 2.31084e-14 -4.56393e-14)
(5.67753e-06 2.17352e-14 -4.06884e-14)
(5.67753e-06 2.0015e-14 -3.84838e-14)
(5.67753e-06 1.92137e-14 -3.43307e-14)
(5.67753e-06 1.81238e-14 -3.28053e-14)
(5.67753e-06 1.7664e-14 -3.20405e-14)
(5.67753e-06 1.69688e-14 -3.06799e-14)
(5.67753e-06 1.62806e-14 -2.70558e-14)
(5.67753e-06 1.50263e-14 -2.43781e-14)
(5.67753e-06 1.44554e-14 -2.09612e-14)
(5.67753e-06 1.32626e-14 -2.11475e-14)
(5.67753e-06 1.2972e-14 -1.78177e-14)
(5.67753e-06 1.16385e-14 -1.77818e-14)
(5.67753e-06 1.16677e-14 -1.71527e-14)
(5.67753e-06 1.14281e-14 -1.92258e-14)
(5.67753e-06 1.18545e-14 -1.59821e-14)
(5.67753e-06 1.03346e-14 -1.51532e-14)
(5.67753e-06 1.00047e-14 -1.14836e-14)
(5.67753e-06 8.7597e-15 -1.16498e-14)
(5.67753e-06 9.27541e-15 -1.19645e-14)
(5.67753e-06 8.80076e-15 -1.09145e-14)
(5.67753e-06 8.01768e-15 -6.54187e-15)
(5.67753e-06 6.14683e-15 -4.64001e-15)
(5.67753e-06 5.23162e-15 -8.03999e-16)
(5.67753e-06 4.1001e-15 -3.7093e-15)
(5.67753e-06 4.14386e-15 1.02573e-16)
(5.67753e-06 3.00011e-15 -2.30312e-15)
(5.67753e-06 3.81078e-15 -1.77264e-15)
(5.67753e-06 3.87392e-15 -6.3891e-15)
(5.67753e-06 4.84172e-15 -2.01745e-15)
(5.67753e-06 3.49446e-15 -3.74396e-15)
(5.67753e-06 3.09825e-15 1.49119e-15)
(5.67753e-06 1.8535e-15 -1.99337e-15)
(5.67753e-06 2.81169e-15 -6.79561e-16)
(5.67753e-06 2.90539e-15 -6.44078e-15)
(5.67753e-06 3.93676e-15 -8.65499e-16)
(5.67753e-06 2.70187e-15 -3.74682e-15)
(5.67753e-06 2.58021e-15 2.3055e-15)
(5.67753e-06 6.7427e-16 -1.11235e-15)
(5.67753e-06 1.06489e-15 1.59062e-15)
(5.67753e-06 5.24777e-16 -2.90576e-15)
(5.67753e-06 1.79592e-15 -5.19488e-16)
(5.67753e-06 1.48111e-15 -4.26934e-15)
(5.67753e-06 2.70083e-15 -1.64202e-15)
(5.67753e-06 2.0983e-15 -5.19237e-15)
(5.67753e-06 3.23921e-15 -2.92053e-15)
(5.67753e-06 2.52845e-15 -6.25563e-15)
(5.67753e-06 3.66518e-15 -4.17294e-15)
(5.67753e-06 2.8982e-15 -7.26583e-15)
(5.67753e-06 4.03003e-15 -5.1114e-15)
(5.67753e-06 3.77389e-15 -8.74918e-15)
(5.67753e-06 5.8249e-15 -7.8559e-15)
(5.67753e-06 5.97169e-15 -1.18043e-14)
(5.67753e-06 6.85022e-15 -6.81565e-15)
(5.67753e-06 4.7286e-15 -7.91835e-15)
(5.67753e-06 3.95159e-15 -2.96117e-15)
(5.67753e-06 2.21986e-15 -5.70906e-15)
(5.67753e-06 3.14914e-15 -4.64048e-15)
(5.67753e-06 3.41097e-15 -8.10159e-15)
(5.67753e-06 4.04368e-15 -3.27888e-15)
(5.67753e-06 2.19611e-15 -3.80418e-15)
(5.67753e-06 1.03834e-15 8.21181e-16)
(5.67753e-06 -5.95872e-16 -1.5353e-15)
(5.67753e-06 -8.66239e-17 -3.67658e-16)
(5.67753e-06 4.48135e-16 -3.65934e-15)
(5.67753e-06 9.42515e-16 1.32375e-15)
(5.67753e-06 -7.519e-16 5.35325e-16)
(5.67753e-06 -1.4245e-15 5.04119e-15)
(5.67753e-06 -3.12541e-15 3.01594e-15)
(5.67753e-06 -3.003e-15 4.78336e-15)
(5.67753e-06 -3.27991e-15 1.48399e-15)
(5.67753e-06 -2.09158e-15 3.59616e-15)
(5.67753e-06 -1.95121e-15 2.02792e-15)
(5.67753e-06 -1.28841e-15 2.60847e-15)
(5.67753e-06 -5.93778e-16 4.71841e-15)
(5.67753e-06 1.24216e-16 4.04213e-15)
(5.67753e-06 2.35868e-15 -5.3563e-16)
(5.67753e-06 1.64782e-15 1.29554e-15)
(8.04188e-06 4.10988e-13 3.0565e-11)
(8.04187e-06 3.43981e-13 -2.13933e-11)
(8.04188e-06 6.23232e-13 8.81527e-12)
(8.04188e-06 4.63638e-13 -3.12753e-12)
(8.04188e-06 4.39846e-13 -1.70543e-13)
(8.04189e-06 3.35392e-13 3.05063e-13)
(8.04189e-06 2.46748e-13 -7.08802e-13)
(8.04189e-06 1.69486e-13 -1.59741e-13)
(8.04189e-06 1.13585e-13 -1.53466e-13)
(8.04189e-06 7.84276e-14 -2.25996e-13)
(8.04189e-06 6.89028e-14 -1.59024e-13)
(8.04189e-06 5.90896e-14 -1.29742e-13)
(8.04189e-06 5.33711e-14 -1.14369e-13)
(8.04189e-06 4.72363e-14 -9.84502e-14)
(8.04189e-06 4.25166e-14 -8.37343e-14)
(8.04189e-06 3.74832e-14 -7.34555e-14)
(8.04189e-06 3.38303e-14 -6.44288e-14)
(8.04189e-06 3.01315e-14 -5.73369e-14)
(8.04189e-06 2.75541e-14 -5.32197e-14)
(8.04189e-06 2.49441e-14 -4.83681e-14)
(8.04189e-06 2.30273e-14 -4.46409e-14)
(8.04189e-06 2.06925e-14 -4.04403e-14)
(8.04189e-06 1.91001e-14 -3.84802e-14)
(8.04189e-06 1.77397e-14 -3.46176e-14)
(8.04189e-06 1.66054e-14 -3.2614e-14)
(8.04189e-06 1.59425e-14 -2.87456e-14)
(8.04189e-06 1.50426e-14 -2.83887e-14)
(8.04189e-06 1.51629e-14 -2.59893e-14)
(8.04189e-06 1.44575e-14 -2.6143e-14)
(8.04189e-06 1.41354e-14 -2.21062e-14)
(8.04189e-06 1.31745e-14 -1.99283e-14)
(8.04189e-06 1.28861e-14 -1.7304e-14)
(8.04189e-06 1.20974e-14 -1.69243e-14)
(8.04189e-06 1.13673e-14 -1.42752e-14)
(8.04189e-06 9.85379e-15 -1.43017e-14)
(8.04189e-06 9.58644e-15 -1.39747e-14)
(8.04189e-06 9.9137e-15 -1.58504e-14)
(8.0419e-06 1.03222e-14 -1.3313e-14)
(8.0419e-06 9.15105e-15 -1.17601e-14)
(8.0419e-06 8.35926e-15 -8.5254e-15)
(8.0419e-06 6.69019e-15 -9.80636e-15)
(8.0419e-06 7.33771e-15 -7.34894e-15)
(8.0419e-06 6.76869e-15 -8.72778e-15)
(8.0419e-06 6.5098e-15 -3.982e-15)
(8.0419e-06 5.13865e-15 -2.53805e-15)
(8.0419e-06 4.8503e-15 1.5946e-17)
(8.0419e-06 3.98425e-15 -1.45466e-15)
(8.0419e-06 3.4973e-15 1.07861e-15)
(8.0419e-06 1.68466e-15 -4.23001e-16)
(8.0419e-06 1.63662e-15 -6.50656e-16)
(8.0419e-06 2.43834e-15 -4.1796e-15)
(8.0419e-06 3.51785e-15 -1.30641e-15)
(8.0419e-06 2.82759e-15 -1.06013e-15)
(8.0419e-06 2.26215e-15 1.65144e-15)
(8.0419e-06 5.21455e-16 -5.63182e-16)
(8.0419e-06 5.29491e-16 -2.84869e-16)
(8.0419e-06 1.53883e-15 -4.46195e-15)
(8.0419e-06 2.78172e-15 -6.63423e-16)
(8.0419e-06 2.22582e-15 -1.1975e-15)
(8.0419e-06 2.03973e-15 1.98981e-15)
(8.0419e-06 2.12337e-16 -5.80961e-16)
(8.0419e-06 -1.55975e-16 9.86871e-16)
(8.0419e-06 -8.53742e-16 -2.76488e-15)
(8.0419e-06 -1.77135e-17 -6.98698e-16)
(8.0419e-06 -1.91696e-16 -3.65683e-15)
(8.0419e-06 6.39629e-16 -1.64431e-15)
(8.0419e-06 5.23187e-16 -4.56705e-15)
(8.0419e-06 1.0705e-15 -2.802e-15)
(8.0419e-06 9.4814e-16 -5.62072e-15)
(8.0419e-06 1.38764e-15 -4.02759e-15)
(8.0419e-06 1.17696e-15 -6.47726e-15)
(8.0419e-06 1.58823e-15 -4.97547e-15)
(8.0419e-06 1.52975e-15 -7.67976e-15)
(8.0419e-06 2.73555e-15 -7.03318e-15)
(8.0419e-06 3.9586e-15 -9.94286e-15)
(8.0419e-06 5.22447e-15 -6.26253e-15)
(8.0419e-06 4.0708e-15 -5.53896e-15)
(8.0419e-06 3.3269e-15 -2.72736e-15)
(8.0419e-06 1.17843e-15 -4.91337e-15)
(8.0419e-06 1.33189e-15 -4.48615e-15)
(8.0419e-06 2.09054e-15 -7.21583e-15)
(8.0419e-06 3.27787e-15 -3.26479e-15)
(8.0419e-06 2.1551e-15 -2.05041e-15)
(8.0419e-06 1.26e-15 3.63863e-16)
(8.0419e-06 -9.4737e-16 -1.28942e-15)
(8.0419e-06 -1.06296e-15 -7.00636e-16)
(8.0419e-06 -4.6974e-16 -2.99698e-15)
(8.0419e-06 7.83078e-16 9.4754e-16)
(8.0419e-06 1.19899e-16 1.58313e-15)
(8.0419e-06 -5.19241e-16 3.90436e-15)
(8.0419e-06 -2.49094e-15 2.72863e-15)
(8.0419e-06 -3.03383e-15 3.75518e-15)
(8.0419e-06 -3.66865e-15 1.09001e-15)
(8.0419e-06 -2.75875e-15 2.98721e-15)
(8.0419e-06 -2.98298e-15 1.8586e-15)
(8.0419e-06 -2.61861e-15 1.84931e-15)
(8.0419e-06 -3.29947e-15 6.97784e-15)
(8.0419e-06 -2.50687e-15 1.67565e-15)
(8.0419e-06 -2.37415e-15 -1.90638e-15)
(8.0419e-06 -6.73572e-16 3.80292e-15)
(5.67752e-06 -2.39411e-12 2.07675e-11)
(5.67751e-06 1.69564e-12 -1.16074e-11)
(5.67752e-06 -1.06991e-12 4.51707e-12)
(5.67752e-06 1.6156e-13 -2.65999e-12)
(5.67752e-06 -5.11522e-14 -1.47545e-13)
(5.67752e-06 -6.77101e-14 1.66969e-14)
(5.67752e-06 1.1283e-15 -6.24987e-13)
(5.67752e-06 -5.08815e-14 -1.95738e-13)
(5.67752e-06 -3.62341e-14 -1.96359e-13)
(5.67752e-06 -2.8208e-14 -2.27529e-13)
(5.67752e-06 -2.53959e-14 -1.67468e-13)
(5.67752e-06 -1.90709e-14 -1.35552e-13)
(5.67752e-06 -1.23996e-14 -1.17836e-13)
(5.67752e-06 -1.01447e-14 -9.99086e-14)
(5.67753e-06 -7.05523e-15 -8.43809e-14)
(5.67753e-06 -5.88833e-15 -7.44e-14)
(5.67753e-06 -4.74846e-15 -6.39505e-14)
(5.67753e-06 -3.92895e-15 -5.85324e-14)
(5.67753e-06 -3.55327e-15 -5.13536e-14)
(5.67753e-06 -2.77608e-15 -4.86333e-14)
(5.67753e-06 -3.32208e-15 -4.30198e-14)
(5.67753e-06 -2.70426e-15 -4.15626e-14)
(5.67753e-06 -3.07722e-15 -3.74395e-14)
(5.67753e-06 -2.31319e-15 -3.58077e-14)
(5.67753e-06 -2.6021e-15 -3.22209e-14)
(5.67753e-06 -1.93046e-15 -3.07341e-14)
(5.67753e-06 -2.38705e-15 -2.86969e-14)
(5.67753e-06 -1.53477e-15 -2.85041e-14)
(5.67753e-06 -1.75523e-15 -2.65697e-14)
(5.67753e-06 -9.90071e-16 -2.40002e-14)
(5.67753e-06 -1.09805e-15 -2.04814e-14)
(5.67753e-06 -3.90892e-16 -1.90382e-14)
(5.67753e-06 -6.06627e-16 -1.72885e-14)
(5.67753e-06 -4.49087e-16 -1.60221e-14)
(5.67753e-06 -1.24038e-15 -1.5438e-14)
(5.67753e-06 -1.06882e-15 -1.69636e-14)
(5.67753e-06 -1.04535e-15 -1.64595e-14)
(5.67753e-06 -4.84967e-16 -1.53873e-14)
(5.67753e-06 -9.23297e-16 -1.2062e-14)
(5.67753e-06 -5.64595e-16 -1.13552e-14)
(5.67753e-06 -1.83516e-15 -1.01912e-14)
(5.67753e-06 -1.09814e-15 -1.18208e-14)
(5.67753e-06 -1.58668e-15 -9.05114e-15)
(5.67753e-06 -3.10316e-16 -6.74176e-15)
(5.67753e-06 -3.66207e-16 -1.72642e-15)
(5.67753e-06 6.91242e-16 -1.63962e-15)
(5.67753e-06 2.78891e-16 -8.17801e-17)
(5.67753e-06 3.07738e-16 -3.15487e-16)
(5.67753e-06 -1.00955e-15 -2.574e-16)
(5.67753e-06 -1.3547e-15 -4.20932e-15)
(5.67753e-06 -1.27634e-15 -3.27189e-15)
(5.67753e-06 -2.99936e-16 -3.81707e-15)
(5.67753e-06 -4.58504e-16 2.77504e-16)
(5.67753e-06 -4.75077e-18 -8.51816e-16)
(5.67753e-06 -1.48795e-15 6.70915e-16)
(5.67753e-06 -1.53812e-15 -4.8145e-15)
(5.67753e-06 -1.51631e-15 -2.3156e-15)
(5.67753e-06 -1.63133e-16 -3.47368e-15)
(5.67753e-06 -3.81808e-16 1.67498e-15)
(5.67753e-06 4.80161e-16 -4.08011e-16)
(5.67753e-06 -5.47605e-16 2.1842e-15)
(5.67753e-06 -4.84606e-16 -1.50964e-15)
(5.67753e-06 -1.27791e-15 -1.03705e-16)
(5.67753e-06 -1.02813e-15 -3.00658e-15)
(5.67753e-06 -1.51115e-15 -1.45929e-15)
(5.67753e-06 -1.19279e-15 -4.06178e-15)
(5.67753e-06 -1.60991e-15 -2.54264e-15)
(5.67753e-06 -1.28734e-15 -5.05481e-15)
(5.67753e-06 -1.56504e-15 -3.74577e-15)
(5.67753e-06 -1.32348e-15 -6.08266e-15)
(5.67753e-06 -1.64296e-15 -4.75119e-15)
(5.67753e-06 -1.50193e-15 -7.1756e-15)
(5.67753e-06 -2.35127e-15 -6.47006e-15)
(5.67753e-06 -1.93492e-15 -1.06106e-14)
(5.67753e-06 -1.86807e-15 -8.17176e-15)
(5.67753e-06 -1.51054e-16 -8.0624e-15)
(5.67753e-06 -4.36744e-16 -3.54861e-15)
(5.67753e-06 4.28297e-16 -4.38696e-15)
(5.67753e-06 -1.25424e-15 -3.20598e-15)
(5.67753e-06 -1.09705e-15 -7.05238e-15)
(5.67753e-06 -1.27182e-15 -5.19784e-15)
(5.67753e-06 1.25282e-16 -4.16137e-15)
(5.67753e-06 1.7537e-16 -3.90145e-16)
(5.67753e-06 7.40994e-16 -4.54658e-16)
(5.67753e-06 -7.11607e-16 1.34953e-16)
(5.67753e-06 -7.85368e-16 -3.01999e-15)
(5.67753e-06 -9.85908e-16 -1.06059e-15)
(5.67753e-06 4.59371e-16 -6.45368e-17)
(5.67753e-06 8.00347e-16 3.56743e-15)
(5.67753e-06 1.47232e-15 3.30302e-15)
(5.67753e-06 2.96829e-16 4.65113e-15)
(5.67753e-06 3.89425e-16 2.6202e-15)
(5.67753e-06 -8.37222e-16 3.0676e-15)
(5.67753e-06 -3.80035e-16 1.48012e-15)
(5.67753e-06 -1.52471e-15 3.13161e-15)
(5.67753e-06 -1.42977e-15 1.99501e-16)
(5.67753e-06 -3.23622e-15 5.08051e-15)
(5.67753e-06 -2.63733e-15 1.27028e-15)
(5.67753e-06 -4.52711e-15 -1.02923e-15)
(5.67753e-06 -2.50929e-15 1.99411e-15)
(7.05758e-06 1.88276e-11 1.99007e-11)
(7.05757e-06 -1.17409e-11 -1.08963e-11)
(7.05758e-06 3.83163e-12 5.137e-12)
(7.05757e-06 -2.39937e-12 -1.6139e-12)
(7.05758e-06 -1.63253e-13 4.42786e-13)
(7.05758e-06 1.13454e-13 5.253e-13)
(7.05758e-06 -3.22506e-13 -6.57635e-14)
(7.05758e-06 -6.65608e-15 1.33926e-13)
(7.05758e-06 -2.9532e-14 8.83628e-14)
(7.05758e-06 -8.50828e-14 1.01319e-14)
(7.05758e-06 -5.65521e-14 3.83055e-14)
(7.05758e-06 -5.33824e-14 2.76183e-14)
(7.05758e-06 -5.07364e-14 2.70983e-14)
(7.05758e-06 -4.51132e-14 2.11768e-14)
(7.05758e-06 -3.86347e-14 2.18557e-14)
(7.05759e-06 -3.39285e-14 1.69395e-14)
(7.05759e-06 -2.92465e-14 1.42184e-14)
(7.05759e-06 -2.45758e-14 1.05291e-14)
(7.05759e-06 -2.21296e-14 3.89209e-15)
(7.05759e-06 -1.73789e-14 4.00346e-15)
(7.05759e-06 -1.52874e-14 -3.29148e-16)
(7.05759e-06 -1.24422e-14 2.06375e-15)
(7.05759e-06 -1.26762e-14 -2.01253e-15)
(7.05759e-06 -1.09838e-14 1.78691e-15)
(7.05759e-06 -1.07836e-14 1.78732e-16)
(7.05759e-06 -9.20502e-15 4.05681e-15)
(7.05759e-06 -8.47456e-15 1.73868e-15)
(7.05759e-06 -9.219e-15 3.14708e-15)
(7.05759e-06 -8.50813e-15 8.29484e-16)
(7.05759e-06 -7.25611e-15 4.3538e-15)
(7.05759e-06 -6.08044e-15 3.25849e-15)
(7.05759e-06 -4.39305e-15 5.66429e-15)
(7.05759e-06 -4.87827e-15 2.28084e-15)
(7.05759e-06 -2.9952e-15 4.82043e-15)
(7.05759e-06 -3.44975e-15 2.28727e-15)
(7.05759e-06 -3.99636e-15 4.96746e-15)
(7.05759e-06 -6.19308e-15 2.68824e-15)
(7.05759e-06 -4.7029e-15 7.60778e-15)
(7.05759e-06 -4.943e-15 5.26226e-15)
(7.05759e-06 -2.95684e-15 8.24104e-15)
(7.05759e-06 -1.82978e-15 2.4942e-15)
(7.05759e-06 -2.59675e-15 4.30982e-15)
(7.05759e-06 -6.49369e-16 8.90174e-16)
(7.05759e-06 1.00292e-16 6.69462e-15)
(7.05759e-06 7.42233e-16 3.32778e-15)
(7.05759e-06 2.32262e-15 6.14139e-15)
(7.05759e-06 9.28983e-16 -4.93937e-16)
(7.05759e-06 3.83985e-15 3.40099e-15)
(7.05759e-06 2.86176e-15 -1.06207e-15)
(7.05759e-06 2.12026e-15 2.7884e-15)
(7.05759e-06 -1.76496e-15 -1.2252e-15)
(7.05759e-06 -3.00244e-17 6.0015e-15)
(7.05759e-06 -9.75838e-16 1.60725e-15)
(7.05759e-06 2.43961e-15 6.00811e-15)
(7.05759e-06 1.49217e-15 -1.01103e-15)
(7.05759e-06 1.99493e-15 3.61183e-15)
(7.05759e-06 -2.1609e-15 -2.94193e-15)
(7.05759e-06 7.77056e-16 5.63049e-15)
(7.05759e-06 -4.82853e-16 -5.11791e-16)
(7.05759e-06 3.76423e-15 5.19986e-15)
(7.05759e-06 2.33621e-15 -3.34201e-15)
(7.05759e-06 4.6337e-15 1.72318e-15)
(7.05759e-06 1.93819e-15 -5.38421e-15)
(7.05759e-06 3.63399e-15 7.62338e-16)
(7.05759e-06 1.64729e-15 -4.761e-15)
(7.05759e-06 3.0295e-15 1.24491e-15)
(7.05759e-06 1.26833e-15 -4.22041e-15)
(7.05759e-06 2.06391e-15 1.49428e-15)
(7.05759e-06 5.5745e-16 -3.99025e-15)
(7.05759e-06 1.10458e-15 1.53327e-15)
(7.05759e-06 -4.23617e-16 -3.33192e-15)
(7.05759e-06 3.00689e-16 2.15731e-15)
(7.05759e-06 -1.35989e-15 -2.31496e-15)
(7.05759e-06 -2.13079e-15 3.71065e-15)
(7.05759e-06 -4.71774e-15 -8.21303e-16)
(7.05759e-06 -2.34771e-15 7.09022e-15)
(7.05759e-06 -3.0156e-15 1.60843e-15)
(7.05759e-06 -2.77224e-16 5.43113e-15)
(7.05759e-06 -6.3624e-16 -2.04987e-15)
(7.05759e-06 -5.89053e-16 2.55761e-15)
(7.05759e-06 -2.90509e-15 -2.21516e-15)
(7.05759e-06 -9.61872e-16 4.94087e-15)
(7.05759e-06 -1.46664e-15 4.30125e-16)
(7.05759e-06 1.33259e-15 3.09337e-15)
(7.05759e-06 5.91875e-16 -3.46581e-15)
(7.05759e-06 1.23784e-15 3.18345e-16)
(7.05759e-06 -1.10805e-15 -3.7995e-15)
(7.05759e-06 1.47827e-15 3.04264e-15)
(7.05759e-06 1.85418e-16 -1.70794e-15)
(7.05759e-06 3.67595e-15 1.07798e-15)
(7.05759e-06 3.8305e-15 -5.95405e-15)
(7.05759e-06 5.13946e-15 -3.00199e-15)
(7.05759e-06 3.58402e-15 -8.19687e-15)
(7.05759e-06 4.86136e-15 -2.72782e-15)
(7.05759e-06 4.28351e-15 -5.61655e-15)
(7.05759e-06 3.38023e-15 -1.0524e-15)
(7.05759e-06 5.55321e-15 -5.66669e-16)
(7.05759e-06 3.07759e-15 3.50426e-15)
(7.05759e-06 7.55032e-16 -1.6176e-15)
(7.05759e-06 2.01037e-15 3.86919e-15)
(1.63222e-05 2.7204e-11 3.55844e-11)
(1.63222e-05 -2.17503e-11 -3.94261e-11)
(1.63222e-05 9.38511e-12 1.72741e-11)
(1.63222e-05 -1.87172e-12 -6.30948e-12)
(1.63222e-05 3.49334e-13 2.72512e-13)
(1.63222e-05 1.06863e-12 1.91694e-12)
(1.63222e-05 -2.38353e-14 -4.89399e-13)
(1.63222e-05 3.54325e-13 3.27132e-13)
(1.63222e-05 2.40485e-13 3.28015e-13)
(1.63222e-05 6.50395e-14 5.80641e-14)
(1.63222e-05 6.6117e-14 9.91352e-14)
(1.63222e-05 4.84422e-14 9.46755e-14)
(1.63222e-05 3.35751e-14 7.54504e-14)
(1.63222e-05 2.83933e-14 6.28889e-14)
(1.63223e-05 2.47392e-14 5.87301e-14)
(1.63223e-05 2.37457e-14 4.87033e-14)
(1.63223e-05 2.17595e-14 4.14478e-14)
(1.63223e-05 2.46072e-14 3.47868e-14)
(1.63223e-05 2.21221e-14 2.48326e-14)
(1.63223e-05 2.56635e-14 2.10871e-14)
(1.63223e-05 2.40634e-14 1.26978e-14)
(1.63223e-05 2.40838e-14 1.30367e-14)
(1.63223e-05 1.94644e-14 7.51905e-15)
(1.63223e-05 1.85263e-14 9.80006e-15)
(1.63223e-05 1.48919e-14 6.22035e-15)
(1.63223e-05 1.53545e-14 8.60246e-15)
(1.63223e-05 1.26374e-14 5.43306e-15)
(1.63223e-05 1.25023e-14 6.17937e-15)
(1.63223e-05 1.10304e-14 5.51072e-15)
(1.63223e-05 1.28283e-14 9.35413e-15)
(1.63223e-05 1.25128e-14 7.85924e-15)
(1.63223e-05 1.3471e-14 8.26514e-15)
(1.63223e-05 1.1507e-14 4.97982e-15)
(1.63223e-05 1.34279e-14 8.39476e-15)
(1.63223e-05 1.05875e-14 6.42559e-15)
(1.63223e-05 9.31577e-15 7.58832e-15)
(1.63223e-05 5.24042e-15 5.8439e-15)
(1.63223e-05 7.29331e-15 1.15156e-14)
(1.63223e-05 5.64237e-15 1.0613e-14)
(1.63223e-05 9.04487e-15 1.30765e-14)
(1.63223e-05 6.46216e-15 6.39183e-15)
(1.63223e-05 9.60027e-15 6.96673e-15)
(1.63223e-05 7.01617e-15 3.91119e-15)
(1.63223e-05 1.01407e-14 9.45182e-15)
(1.63223e-05 9.14451e-15 6.38444e-15)
(1.63223e-05 9.61785e-15 8.53935e-15)
(1.63223e-05 8.55637e-15 1.56777e-15)
(1.63223e-05 1.04774e-14 5.92196e-15)
(1.63223e-05 8.34025e-15 5.76385e-17)
(1.63223e-05 6.56376e-15 3.09915e-15)
(1.63223e-05 1.43513e-15 -2.11227e-16)
(1.63223e-05 3.6803e-15 8.89943e-15)
(1.63223e-05 3.71525e-15 5.20021e-15)
(1.63223e-05 5.88622e-15 9.78357e-15)
(1.63223e-05 5.21367e-15 6.12122e-16)
(1.63223e-05 4.88508e-15 4.39585e-15)
(1.63223e-05 7.44128e-16 -1.12498e-15)
(1.63223e-05 3.59054e-15 8.73802e-15)
(1.63223e-05 4.79876e-15 1.60785e-15)
(1.63223e-05 6.72617e-15 7.11937e-15)
(1.63223e-05 4.96776e-15 -4.17074e-15)
(1.63223e-05 5.88829e-15 4.03856e-16)
(1.63223e-05 3.50002e-15 -7.85505e-15)
(1.63223e-05 5.61003e-15 -4.90045e-16)
(1.63223e-05 3.75225e-15 -6.81796e-15)
(1.63223e-05 6.02682e-15 4.74158e-16)
(1.63223e-05 3.51222e-15 -6.01594e-15)
(1.63223e-05 5.89775e-15 9.25379e-16)
(1.63223e-05 2.87009e-15 -5.33257e-15)
(1.63223e-05 5.34509e-15 1.45238e-15)
(1.63223e-05 2.20901e-15 -4.09699e-15)
(1.63223e-05 4.59905e-15 1.9581e-15)
(1.63223e-05 1.32181e-15 -3.50157e-15)
(1.63223e-05 3.00473e-15 2.98969e-15)
(1.63223e-05 -9.87314e-16 6.40634e-17)
(1.63223e-05 2.88435e-15 1.01783e-14)
(1.63223e-05 2.66311e-15 5.32079e-15)
(1.63223e-05 5.17381e-15 9.13361e-15)
(1.63223e-05 2.99623e-15 -1.17728e-15)
(1.63223e-05 2.75657e-15 1.69219e-15)
(1.63223e-05 -8.82415e-16 -2.48454e-15)
(1.63223e-05 1.58892e-15 6.78242e-15)
(1.63223e-05 2.41629e-15 3.01377e-15)
(1.63223e-05 3.6534e-15 5.68919e-15)
(1.63223e-05 2.65962e-15 -3.456e-15)
(1.63223e-05 1.44394e-15 -1.46563e-15)
(1.63223e-05 -6.49378e-16 -5.0158e-15)
(1.63223e-05 7.21219e-16 3.08165e-15)
(1.63223e-05 1.11679e-15 -1.1306e-15)
(1.63223e-05 3.4224e-15 1.40962e-15)
(1.63223e-05 3.20579e-15 -7.36843e-15)
(1.63223e-05 3.87396e-15 -5.54615e-15)
(1.63223e-05 1.86132e-15 -1.23261e-14)
(1.63223e-05 3.09488e-15 -6.49459e-15)
(1.63223e-05 1.63651e-15 -9.30322e-15)
(1.63223e-05 3.11238e-16 -7.28069e-15)
(1.63223e-05 2.5882e-15 1.249e-16)
(1.63223e-05 -8.94997e-15 -8.98176e-15)
(1.63223e-05 -1.06877e-14 -1.99696e-14)
(1.63223e-05 -1.83351e-15 -8.10422e-15)
(1.91534e-05 3.57083e-13 3.12284e-11)
(1.91533e-05 1.64847e-12 -3.31291e-11)
(1.91534e-05 1.91666e-12 2.42619e-11)
(1.91534e-05 1.64989e-12 -9.48502e-12)
(1.91534e-05 1.41009e-12 1.53356e-12)
(1.91534e-05 9.93428e-13 2.9251e-12)
(1.91534e-05 7.03504e-13 -6.17831e-13)
(1.91534e-05 5.52715e-13 5.53738e-13)
(1.91534e-05 3.55524e-13 5.13646e-13)
(1.91534e-05 2.64012e-13 1.68331e-13)
(1.91534e-05 2.14929e-13 1.885e-13)
(1.91534e-05 1.87821e-13 1.88876e-13)
(1.91534e-05 1.68879e-13 1.53025e-13)
(1.91534e-05 1.50407e-13 1.28563e-13)
(1.91534e-05 1.35013e-13 1.16809e-13)
(1.91534e-05 1.19097e-13 9.71264e-14)
(1.91534e-05 1.08705e-13 8.79319e-14)
(1.91534e-05 9.60286e-14 7.14225e-14)
(1.91534e-05 9.15558e-14 6.60996e-14)
(1.91534e-05 8.15915e-14 5.10502e-14)
(1.91534e-05 7.73307e-14 4.75756e-14)
(1.91534e-05 6.7647e-14 3.80458e-14)
(1.91534e-05 6.38421e-14 3.72044e-14)
(1.91534e-05 5.7381e-14 3.14897e-14)
(1.91534e-05 5.40098e-14 3.06811e-14)
(1.91534e-05 4.99279e-14 2.67453e-14)
(1.91534e-05 4.72062e-14 2.70343e-14)
(1.91534e-05 4.71075e-14 2.4607e-14)
(1.91534e-05 4.54457e-14 2.46613e-14)
(1.91534e-05 4.3195e-14 2.35231e-14)
(1.91534e-05 4.06004e-14 2.35938e-14)
(1.91534e-05 3.79275e-14 2.02086e-14)
(1.91534e-05 3.70714e-14 2.00669e-14)
(1.91534e-05 3.34036e-14 1.82863e-14)
(1.91534e-05 2.99176e-14 1.85751e-14)
(1.91534e-05 2.75512e-14 1.5479e-14)
(1.91534e-05 3.12148e-14 1.84305e-14)
(1.91534e-05 2.90727e-14 1.86985e-14)
(1.91534e-05 2.79333e-14 2.18971e-14)
(1.91534e-05 2.26689e-14 1.7656e-14)
(1.91534e-05 2.00923e-14 1.66128e-14)
(1.91534e-05 2.07533e-14 1.15726e-14)
(1.91534e-05 2.0709e-14 1.41331e-14)
(1.91534e-05 1.77532e-14 1.23826e-14)
(1.91534e-05 1.77352e-14 1.55277e-14)
(1.91534e-05 1.16553e-14 8.21211e-15)
(1.91534e-05 1.52115e-14 9.78709e-15)
(1.91534e-05 8.64386e-15 5.63807e-15)
(1.91534e-05 7.83579e-15 6.75534e-15)
(1.91534e-05 2.37772e-15 1.37245e-15)
(1.91534e-05 1.05124e-14 7.86288e-15)
(1.91534e-05 6.83205e-15 6.18648e-15)
(1.91534e-05 1.2664e-14 1.39738e-14)
(1.91534e-05 2.54178e-15 6.23725e-15)
(1.91534e-05 5.15632e-15 8.8756e-15)
(1.91534e-05 -2.11847e-15 -2.08128e-17)
(1.91534e-05 9.79717e-15 8.06543e-15)
(1.91534e-05 4.67724e-15 4.33727e-15)
(1.91534e-05 1.27729e-14 1.20891e-14)
(1.91534e-05 2.19471e-15 2.51685e-15)
(1.91534e-05 5.64691e-15 5.13808e-15)
(1.91534e-05 -2.9989e-15 -4.49202e-15)
(1.91534e-05 2.93374e-15 6.00044e-16)
(1.91534e-05 -1.81118e-15 -4.75343e-15)
(1.91534e-05 4.29408e-15 1.37527e-15)
(1.91534e-05 2.66212e-16 -3.60123e-15)
(1.91534e-05 5.43152e-15 2.87735e-15)
(1.91534e-05 1.77646e-15 -2.63359e-15)
(1.91534e-05 6.07031e-15 3.78772e-15)
(1.91534e-05 2.9689e-15 -1.62763e-15)
(1.91534e-05 6.67129e-15 4.71496e-15)
(1.91534e-05 3.09931e-15 -6.11991e-16)
(1.91534e-05 7.21371e-15 5.25624e-15)
(1.91534e-05 5.63237e-15 3.63501e-16)
(1.91534e-05 1.52019e-14 9.29429e-15)
(1.91534e-05 1.28275e-14 7.40623e-15)
(1.91534e-05 1.6622e-14 1.38114e-14)
(1.91534e-05 7.57919e-15 6.62098e-15)
(1.91534e-05 7.20872e-15 6.55147e-15)
(1.91534e-05 2.83018e-15 -3.03546e-16)
(1.91534e-05 9.8137e-15 4.46095e-15)
(1.91534e-05 8.04357e-15 4.91318e-15)
(1.91534e-05 1.03217e-14 8.58842e-15)
(1.91534e-05 1.75213e-15 3.57298e-15)
(1.91534e-05 6.29252e-16 7.0897e-16)
(1.91534e-05 -4.77491e-15 -4.73568e-15)
(1.91534e-05 2.76282e-15 -5.07798e-16)
(1.91534e-05 5.88061e-16 5.71234e-16)
(1.91534e-05 4.32573e-15 3.72539e-15)
(1.91534e-05 -3.12201e-15 -2.45096e-15)
(1.91534e-05 -3.90316e-15 -3.50666e-15)
(1.91534e-05 -9.97062e-15 -1.06383e-14)
(1.91534e-05 -6.26126e-15 -8.74376e-15)
(1.91534e-05 -9.73786e-15 -1.18873e-14)
(1.91534e-05 -5.95251e-15 -4.69501e-15)
(1.91534e-05 -9.71919e-15 -1.18493e-14)
(1.91534e-05 -7.97682e-15 5.26067e-15)
(1.91534e-05 -1.05544e-14 -7.95415e-15)
(1.91534e-05 -6.04566e-15 -1.87197e-14)
(1.91534e-05 -1.47494e-15 -1.3966e-14)
(1.63222e-05 -2.61234e-11 3.56068e-11)
(1.63222e-05 2.40924e-11 -3.72767e-11)
(1.63222e-05 -7.04575e-12 1.63767e-11)
(1.63222e-05 3.91126e-12 -7.13389e-12)
(1.63222e-05 1.46494e-12 2.92047e-13)
(1.63222e-05 2.63078e-13 1.66228e-12)
(1.63222e-05 9.90702e-13 -8.21329e-13)
(1.63222e-05 3.74363e-13 1.18528e-13)
(1.63222e-05 2.52882e-13 1.33594e-13)
(1.63222e-05 2.74518e-13 -1.06253e-13)
(1.63222e-05 2.08774e-13 -3.02234e-14)
(1.63222e-05 1.82076e-13 -4.3579e-15)
(1.63222e-05 1.7925e-13 -9.67889e-15)
(1.63222e-05 1.59932e-13 -3.46316e-15)
(1.63223e-05 1.44304e-13 2.26475e-15)
(1.63223e-05 1.27893e-13 3.52595e-15)
(1.63223e-05 1.13684e-13 2.71416e-15)
(1.63223e-05 9.97321e-14 2.21356e-15)
(1.63223e-05 8.88479e-14 -1.5021e-15)
(1.63223e-05 7.94308e-14 -4.46121e-15)
(1.63223e-05 6.95069e-14 -7.14275e-15)
(1.63223e-05 6.37926e-14 -8.43281e-15)
(1.63223e-05 5.8369e-14 -9.44528e-15)
(1.63223e-05 5.59058e-14 -8.53836e-15)
(1.63223e-05 5.17607e-14 -8.43136e-15)
(1.63223e-05 4.97823e-14 -7.0182e-15)
(1.63223e-05 4.74268e-14 -6.7913e-15)
(1.63223e-05 4.78462e-14 -7.70881e-15)
(1.63223e-05 4.65847e-14 -6.96392e-15)
(1.63223e-05 4.43013e-14 -3.96318e-15)
(1.63223e-05 4.01876e-14 -2.12593e-15)
(1.63223e-05 3.91032e-14 -7.35092e-16)
(1.63223e-05 3.65104e-14 -1.62702e-15)
(1.63223e-05 3.30943e-14 -1.17958e-16)
(1.63223e-05 2.89943e-14 -1.87147e-15)
(1.63223e-05 3.06727e-14 -1.8249e-15)
(1.63223e-05 3.36344e-14 -3.5064e-15)
(1.63223e-05 3.36218e-14 1.21159e-15)
(1.63223e-05 2.87907e-14 1.62873e-15)
(1.63223e-05 2.47128e-14 3.42143e-15)
(1.63223e-05 2.02317e-14 2.49053e-16)
(1.63223e-05 2.12258e-14 -1.44617e-15)
(1.63223e-05 2.03465e-14 -2.55384e-15)
(1.63223e-05 1.90882e-14 2.83482e-15)
(1.63223e-05 1.42922e-14 4.14817e-15)
(1.63223e-05 1.28381e-14 8.93585e-15)
(1.63223e-05 1.00059e-14 2.98275e-15)
(1.63223e-05 6.88233e-15 6.50481e-15)
(1.63223e-05 2.17221e-15 -8.57814e-16)
(1.63223e-05 4.83004e-15 2.78022e-15)
(1.63223e-05 1.04139e-14 -2.89894e-15)
(1.63223e-05 1.34039e-14 6.08935e-15)
(1.63223e-05 9.214e-15 2.28479e-15)
(1.63223e-05 5.5499e-15 8.64929e-15)
(1.63223e-05 -8.53754e-16 -2.21991e-16)
(1.63223e-05 2.10451e-15 3.35199e-15)
(1.63223e-05 7.8389e-15 -5.03899e-15)
(1.63223e-05 1.15107e-14 6.23476e-15)
(1.63223e-05 7.01497e-15 6.7586e-16)
(1.63223e-05 4.8764e-15 7.98193e-15)
(1.63223e-05 -1.339e-16 -1.53292e-15)
(1.63223e-05 -9.96857e-16 2.41768e-15)
(1.63223e-05 -1.06083e-15 -6.2467e-15)
(1.63223e-05 1.74301e-16 -1.30859e-16)
(1.63223e-05 8.18559e-16 -7.12954e-15)
(1.63223e-05 2.29565e-15 -6.14209e-16)
(1.63223e-05 2.70107e-15 -6.78637e-15)
(1.63223e-05 3.8277e-15 -8.04442e-16)
(1.63223e-05 4.34499e-15 -6.64622e-15)
(1.63223e-05 5.61671e-15 -1.37982e-15)
(1.63223e-05 5.57987e-15 -6.77573e-15)
(1.63223e-05 6.82437e-15 -1.65443e-15)
(1.63223e-05 6.91909e-15 -6.96941e-15)
(1.63223e-05 1.30824e-14 -2.72849e-15)
(1.63223e-05 1.78702e-14 -5.76985e-15)
(1.63223e-05 2.19848e-14 2.65614e-15)
(1.63223e-05 1.57332e-14 9.62456e-16)
(1.63223e-05 1.19692e-14 5.57843e-15)
(1.63223e-05 5.09372e-15 -2.01818e-15)
(1.63223e-05 7.82127e-15 -1.1232e-15)
(1.63223e-05 1.17965e-14 -5.60505e-15)
(1.63223e-05 1.43878e-14 2.29693e-15)
(1.63223e-05 8.18647e-15 4.06095e-16)
(1.63223e-05 3.35641e-15 5.26644e-15)
(1.63223e-05 -4.04588e-15 -1.77937e-15)
(1.63223e-05 -1.95539e-15 -6.97239e-16)
(1.63223e-05 2.06027e-15 -5.86403e-15)
(1.63223e-05 4.96523e-15 3.13313e-15)
(1.63223e-05 4.75087e-16 8.38122e-16)
(1.63223e-05 -3.28591e-15 5.68764e-15)
(1.63223e-05 -1.09703e-14 -1.43238e-15)
(1.63223e-05 -1.21298e-14 1.34067e-16)
(1.63223e-05 -1.37673e-14 -6.82637e-15)
(1.63223e-05 -1.17902e-14 -2.33149e-15)
(1.63223e-05 -1.27061e-14 -5.19623e-15)
(1.63223e-05 -9.92225e-15 -4.7322e-15)
(1.63223e-05 -1.58828e-14 1.31707e-15)
(1.63223e-05 -1.7199e-15 -1.11993e-14)
(1.63223e-05 2.15765e-15 -1.73179e-14)
(1.63223e-05 -1.509e-15 -5.37154e-15)
(7.05758e-06 -1.81079e-11 1.94715e-11)
(7.05757e-06 1.25712e-11 -1.12884e-11)
(7.05758e-06 -3.20001e-12 4.41937e-12)
(7.05757e-06 2.89887e-12 -2.22845e-12)
(7.05758e-06 5.88144e-13 1.81211e-13)
(7.05758e-06 2.47915e-13 1.35802e-13)
(7.05758e-06 6.27822e-13 -3.69654e-13)
(7.05758e-06 2.2303e-13 -8.35954e-14)
(7.05758e-06 1.97224e-13 -8.48865e-14)
(7.05758e-06 1.96622e-13 -1.41609e-13)
(7.05758e-06 1.4729e-13 -8.81827e-14)
(7.05758e-06 1.27155e-13 -8.03762e-14)
(7.05758e-06 1.17143e-13 -6.20725e-14)
(7.05758e-06 1.03372e-13 -5.4946e-14)
(7.05758e-06 8.9723e-14 -4.15651e-14)
(7.05759e-06 8.05312e-14 -3.71168e-14)
(7.05759e-06 6.9189e-14 -3.19527e-14)
(7.05759e-06 6.37987e-14 -2.88759e-14)
(7.05759e-06 5.37583e-14 -2.91785e-14)
(7.05759e-06 5.03408e-14 -2.47815e-14)
(7.05759e-06 4.17315e-14 -2.60554e-14)
(7.05759e-06 4.08558e-14 -2.11844e-14)
(7.05759e-06 3.5119e-14 -2.355e-14)
(7.05759e-06 3.50002e-14 -1.81467e-14)
(7.05759e-06 3.06618e-14 -1.94443e-14)
(7.05759e-06 3.07656e-14 -1.43303e-14)
(7.05759e-06 2.80407e-14 -1.76909e-14)
(7.05759e-06 2.90681e-14 -1.3313e-14)
(7.05759e-06 2.69631e-14 -1.60778e-14)
(7.05759e-06 2.61509e-14 -1.01532e-14)
(7.05759e-06 2.26341e-14 -1.10498e-14)
(7.05759e-06 2.2532e-14 -6.766e-15)
(7.05759e-06 1.9771e-14 -9.49926e-15)
(7.05759e-06 1.93966e-14 -5.10437e-15)
(7.05759e-06 1.67227e-14 -9.27092e-15)
(7.05759e-06 1.956e-14 -5.92944e-15)
(7.05759e-06 1.83785e-14 -1.01025e-14)
(7.05759e-06 1.97766e-14 -4.18294e-15)
(7.05759e-06 1.53563e-14 -7.15223e-15)
(7.05759e-06 1.57955e-14 -1.79946e-15)
(7.05759e-06 1.11541e-14 -8.88899e-15)
(7.05759e-06 1.37474e-14 -2.09148e-15)
(7.05759e-06 9.73352e-15 -7.97567e-15)
(7.05759e-06 1.08052e-14 2.36826e-15)
(7.05759e-06 4.82086e-15 -2.01682e-15)
(7.05759e-06 6.82833e-15 5.79882e-15)
(7.05759e-06 2.18948e-15 -2.13739e-15)
(7.05759e-06 3.15163e-15 5.30482e-15)
(7.05759e-06 -4.22195e-16 -3.64791e-15)
(7.05759e-06 5.31582e-15 2.1816e-15)
(7.05759e-06 3.82003e-15 -5.48847e-15)
(7.05759e-06 8.44715e-15 4.51894e-15)
(7.05759e-06 1.72824e-15 -2.8862e-15)
(7.05759e-06 4.44287e-15 6.55286e-15)
(7.05759e-06 -2.28156e-15 -4.93602e-15)