/*--------------------------------*- C++ -*----------------------------------*\
| =========                 |                                                 |
| \\      /  F ield         | OpenFOAM: The Open Source CFD Toolbox           |
|  \\    /   O peration     | Version:  2412                                  |
|   \\  /    A nd           | Website:  www.openfoam.com                      |
|    \\/     M anipulation  |                                                 |
\*---------------------------------------------------------------------------*/
FoamFile
{
    version     2.0;
    format      ascii;
    arch        "LSB;label=32;scalar=64";
    class       surfaceScalarField;
    location    "0.0001";
    object      phi;
}
// * * * * * * * * * * * * * * * * * * * * * * * * * * * * * * * * * * * * * //

dimensions      [0 3 -1 0 0 0 0];

oriented        oriented;

internalField   nonuniform List<scalar> 
40656
(
5.37635e-18
9.47292e-23
9.61604e-23
5.37638e-18
-8.86195e-24
-8.90791e-24
5.37637e-18
1.2256e-23
1.27033e-23
5.37639e-18
-5.45391e-24
-5.35128e-24
5.37641e-18
-2.69568e-24
-2.56187e-24
5.37643e-18
-7.28059e-25
-5.57678e-25
5.37644e-18
-1.50248e-24
-1.4085e-24
5.37644e-18
-4.2185e-25
-3.63407e-25
5.37645e-18
-5.72521e-26
-1.59658e-26
5.37645e-18
-1.50682e-26
3.17441e-27
5.37645e-18
1.02264e-25
1.07499e-25
5.37645e-18
1.37163e-25
1.39698e-25
5.37645e-18
1.20379e-25
1.19627e-25
5.37645e-18
1.11934e-25
1.09641e-25
5.37645e-18
1.01675e-25
9.9509e-26
5.37645e-18
8.95136e-26
8.8014e-26
5.37645e-18
8.01263e-26
7.90597e-26
5.37645e-18
7.34739e-26
7.27912e-26
5.37645e-18
6.84394e-26
6.81551e-26
5.37644e-18
6.49558e-26
6.45003e-26
5.37644e-18
6.19657e-26
6.13867e-26
5.37644e-18
5.92894e-26
5.85877e-26
5.37644e-18
5.67022e-26
5.59593e-26
5.37644e-18
5.41387e-26
5.37936e-26
5.37644e-18
5.16782e-26
5.2058e-26
5.37644e-18
4.96428e-26
4.99982e-26
5.37644e-18
4.72551e-26
4.76614e-26
5.37644e-18
4.49492e-26
4.52952e-26
5.37644e-18
4.30333e-26
4.3318e-26
5.37644e-18
4.13975e-26
4.16031e-26
5.37644e-18
3.99774e-26
4.01013e-26
5.37644e-18
3.87236e-26
3.87671e-26
5.37644e-18
3.76048e-26
3.75734e-26
5.37644e-18
3.6593e-26
3.64913e-26
5.37644e-18
3.56639e-26
3.54943e-26
5.37644e-18
3.47959e-26
3.45618e-26
5.37644e-18
3.39703e-26
3.36778e-26
5.37644e-18
3.31712e-26
3.28253e-26
5.37644e-18
3.2385e-26
3.19929e-26
5.37644e-18
3.16012e-26
3.11691e-26
5.37644e-18
3.08161e-26
3.03487e-26
5.37644e-18
3.00261e-26
2.95278e-26
5.37644e-18
2.92287e-26
2.87046e-26
5.37644e-18
2.84194e-26
2.78746e-26
5.37644e-18
2.75991e-26
2.70383e-26
5.37644e-18
2.677e-26
2.61967e-26
5.37644e-18
2.59358e-26
2.53531e-26
5.37644e-18
2.50978e-26
2.4508e-26
5.37644e-18
2.42589e-26
2.36646e-26
5.37644e-18
2.34207e-26
2.28239e-26
5.37644e-18
2.25867e-26
2.1989e-26
5.37644e-18
2.17583e-26
2.1161e-26
5.37644e-18
2.09382e-26
2.0343e-26
5.37644e-18
2.01279e-26
1.95362e-26
5.37644e-18
1.93291e-26
1.87422e-26
5.37644e-18
1.8542e-26
1.79611e-26
5.37644e-18
1.77698e-26
1.71961e-26
5.37644e-18
1.70137e-26
1.64476e-26
5.37644e-18
1.6275e-26
1.57173e-26
5.37644e-18
1.55529e-26
1.50041e-26
5.37644e-18
1.4849e-26
1.43102e-26
5.37644e-18
1.4163e-26
1.36354e-26
5.37644e-18
1.34962e-26
1.29802e-26
5.37644e-18
1.28482e-26
1.2343e-26
5.37644e-18
1.22194e-26
1.17254e-26
5.37644e-18
1.16084e-26
1.11262e-26
5.37644e-18
1.10162e-26
1.05467e-26
5.37644e-18
1.04419e-26
9.9853e-27
5.37644e-18
9.88565e-27
9.44269e-27
5.37644e-18
9.34625e-27
8.91699e-27
5.37644e-18
8.82358e-27
8.40875e-27
5.37644e-18
8.3163e-27
7.91621e-27
5.37644e-18
7.82465e-27
7.43998e-27
5.37644e-18
7.3474e-27
6.97836e-27
5.37644e-18
6.88516e-27
6.53274e-27
5.37644e-18
6.43828e-27
6.10262e-27
5.37644e-18
6.00908e-27
5.68906e-27
5.37644e-18
5.59846e-27
5.29174e-27
5.37644e-18
5.20969e-27
4.91274e-27
5.37644e-18
4.84048e-27
4.55623e-27
5.37645e-18
4.49183e-27
4.22731e-27
5.37645e-18
4.16732e-27
3.9198e-27
5.37645e-18
3.8661e-27
3.63416e-27
5.37645e-18
3.5787e-27
3.37275e-27
5.37645e-18
3.30602e-27
3.12816e-27
5.37645e-18
3.0439e-27
2.87938e-27
5.37645e-18
2.78764e-27
2.62769e-27
5.37645e-18
2.55305e-27
2.39368e-27
5.37645e-18
2.33642e-27
2.17503e-27
5.37645e-18
2.15198e-27
1.978e-27
5.37645e-18
2.38622e-27
2.182e-27
5.37645e-18
3.13569e-27
2.92026e-27
5.37645e-18
3.67577e-27
3.44308e-27
5.37645e-18
7.01861e-27
6.8358e-27
5.37645e-18
1.21134e-26
1.22329e-26
5.37645e-18
1.07158e-26
1.04633e-26
5.37645e-18
3.72773e-26
3.82578e-26
5.37644e-18
3.61114e-26
3.78061e-26
5.37644e-18
7.60688e-26
7.9016e-26
1.46377e-25
1.48669e-25
1.12776e-17
1.0156e-22
2.78726e-22
1.12777e-17
-3.85851e-24
-3.91632e-23
1.12777e-17
2.43831e-23
3.06354e-23
1.12777e-17
-3.19718e-24
-1.38845e-23
1.12778e-17
7.90866e-25
-7.42217e-24
1.12778e-17
2.47164e-24
-2.17615e-25
1.12778e-17
3.09497e-25
-3.47254e-24
1.12778e-17
1.02641e-24
-6.17498e-25
1.12778e-17
9.16509e-25
3.95443e-25
1.12778e-17
5.28673e-25
2.77246e-25
1.12778e-17
3.82051e-25
5.37222e-25
1.12778e-17
2.53876e-25
5.98599e-25
1.12778e-17
1.34384e-25
5.0098e-25
1.12778e-17
7.48573e-26
4.26036e-25
1.12778e-17
4.80572e-26
3.5998e-25
1.12778e-17
3.95655e-26
2.92302e-25
1.12778e-17
4.63192e-26
2.36157e-25
1.12778e-17
6.13137e-26
1.93036e-25
1.12778e-17
7.93519e-26
1.59253e-25
1.12778e-17
9.73488e-26
1.32872e-25
1.12778e-17
1.13227e-25
1.12595e-25
1.12778e-17
1.2621e-25
9.76574e-26
1.12778e-17
1.36545e-25
8.58161e-26
1.12778e-17
1.43508e-25
7.60618e-26
1.12778e-17
1.47692e-25
6.86055e-26
1.12778e-17
1.50447e-25
6.24816e-26
1.12778e-17
1.51877e-25
5.66255e-26
1.12778e-17
1.5225e-25
5.14943e-26
1.12778e-17
1.51875e-25
4.76674e-26
1.12778e-17
1.51046e-25
4.4853e-26
1.12778e-17
1.49891e-25
4.27083e-26
1.12778e-17
1.48497e-25
4.10413e-26
1.12778e-17
1.46901e-25
3.97671e-26
1.12778e-17
1.45138e-25
3.87833e-26
1.12778e-17
1.43233e-25
3.79892e-26
1.12778e-17
1.41191e-25
3.73282e-26
1.12778e-17
1.39016e-25
3.6744e-26
1.12778e-17
1.36714e-25
3.62014e-26
1.12778e-17
1.34281e-25
3.5668e-26
1.12778e-17
1.31722e-25
3.51304e-26
1.12778e-17
1.29038e-25
3.45864e-26
1.12778e-17
1.26235e-25
3.40129e-26
1.12778e-17
1.23322e-25
3.34035e-26
1.12778e-17
1.2032e-25
3.27626e-26
1.12778e-17
1.17241e-25
3.20842e-26
1.12778e-17
1.14094e-25
3.13748e-26
1.12778e-17
1.10891e-25
3.06418e-26
1.12778e-17
1.07647e-25
2.98862e-26
1.12778e-17
1.04373e-25
2.91114e-26
1.12778e-17
1.01082e-25
2.83228e-26
1.12778e-17
9.7785e-26
2.75245e-26
1.12778e-17
9.44919e-26
2.67204e-26
1.12778e-17
9.12117e-26
2.59137e-26
1.12778e-17
8.79546e-26
2.51038e-26
1.12778e-17
8.4728e-26
2.42967e-26
1.12778e-17
8.15393e-26
2.35022e-26
1.12778e-17
7.83942e-26
2.27128e-26
1.12778e-17
7.52964e-26
2.19288e-26
1.12778e-17
7.22498e-26
2.11571e-26
1.12778e-17
6.926e-26
2.03981e-26
1.12778e-17
6.63306e-26
1.96524e-26
1.12778e-17
6.34665e-26
1.89167e-26
1.12778e-17
6.06699e-26
1.81915e-26
1.12778e-17
5.79404e-26
1.7484e-26
1.12778e-17
5.52772e-26
1.67928e-26
1.12778e-17
5.26838e-26
1.61164e-26
1.12778e-17
5.01602e-26
1.54538e-26
1.12778e-17
4.7707e-26
1.48061e-26
1.12778e-17
4.53227e-26
1.41731e-26
1.12778e-17
4.3008e-26
1.35526e-26
1.12778e-17
4.07606e-26
1.29447e-26
1.12778e-17
3.85805e-26
1.23484e-26
1.12778e-17
3.64674e-26
1.17617e-26
1.12778e-17
3.44224e-26
1.11831e-26
1.12778e-17
3.24447e-26
1.06145e-26
1.12778e-17
3.05348e-26
1.00618e-26
1.12778e-17
2.86946e-26
9.52697e-27
1.12778e-17
2.69294e-26
9.00936e-27
1.12778e-17
2.52425e-26
8.51402e-27
1.12778e-17
2.36369e-26
8.03873e-27
1.12778e-17
2.21107e-26
7.58544e-27
1.12778e-17
2.06578e-26
7.16646e-27
1.12778e-17
1.92731e-26
6.77542e-27
1.12778e-17
1.79568e-26
6.38526e-27
1.12778e-17
1.66966e-26
5.98308e-27
1.12778e-17
1.54691e-26
5.55329e-27
1.12778e-17
1.42567e-26
5.0923e-27
1.12778e-17
1.30795e-26
4.66881e-27
1.12778e-17
1.19235e-26
4.22094e-27
1.12778e-17
1.08413e-26
3.75687e-27
1.12778e-17
1.0376e-26
4.53865e-27
1.12778e-17
1.0587e-26
6.24978e-27
1.12778e-17
1.09436e-26
6.31672e-27
1.12778e-17
1.62675e-26
1.58964e-26
1.12778e-17
2.44619e-26
2.56556e-26
1.12778e-17
2.63705e-26
1.63916e-26
1.12778e-17
6.31996e-26
9.56794e-26
1.12778e-17
6.29871e-26
6.55686e-26
1.12778e-17
1.07035e-25
2.11962e-25
1.49126e-25
4.17311e-25
1.49765e-17
7.91884e-23
3.42603e-22
1.49767e-17
1.50797e-23
-1.03564e-22
1.49766e-17
2.12495e-23
5.97455e-23
1.49767e-17
-6.97555e-25
-2.56939e-23
1.49767e-17
2.37473e-24
-1.06332e-23
1.49768e-17
2.02225e-24
2.33182e-24
1.49768e-17
2.56005e-25
-4.70114e-24
1.49768e-17
8.99165e-25
-3.77892e-25
1.49768e-17
7.13089e-25
9.69813e-25
1.49768e-17
4.23509e-25
4.84794e-25
1.49768e-17
3.10262e-25
7.73576e-25
1.49768e-17
1.93117e-25
8.25984e-25
1.49768e-17
8.53574e-26
6.73194e-25
1.49768e-17
2.71407e-26
5.76046e-25
1.49768e-17
3.46939e-27
4.9899e-25
1.49768e-17
1.77096e-27
4.18936e-25
1.49768e-17
1.62184e-26
3.5293e-25
1.49768e-17
3.90111e-26
3.02458e-25
1.49768e-17
6.43338e-26
2.63706e-25
1.49768e-17
8.84784e-26
2.34585e-25
1.49768e-17
1.10202e-25
2.11458e-25
1.49768e-17
1.2804e-25
1.92205e-25
1.49768e-17
1.42511e-25
1.75616e-25
1.49768e-17
1.53101e-25
1.60898e-25
1.49768e-17
1.60383e-25
1.48208e-25
1.49768e-17
1.65393e-25
1.37196e-25
1.49768e-17
1.68766e-25
1.27414e-25
1.49768e-17
1.70782e-25
1.19085e-25
1.49768e-17
1.71688e-25
1.12243e-25
1.49768e-17
1.71798e-25
1.06647e-25
1.49768e-17
1.7132e-25
1.02048e-25
1.49768e-17
1.70398e-25
9.82483e-26
1.49768e-17
1.6913e-25
9.50418e-26
1.49768e-17
1.67581e-25
9.22851e-26
1.49768e-17
1.65774e-25
8.9892e-26
1.49768e-17
1.63727e-25
8.77484e-26
1.49768e-17
1.61461e-25
8.57778e-26
1.49768e-17
1.58987e-25
8.39305e-26
1.49768e-17
1.56322e-25
8.21392e-26
1.49768e-17
1.53476e-25
8.03653e-26
1.49768e-17
1.5046e-25
7.85811e-26
1.49768e-17
1.47298e-25
7.67461e-26
1.49768e-17
1.44003e-25
7.48731e-26
1.49768e-17
1.40583e-25
7.29817e-26
1.49768e-17
1.3706e-25
7.10543e-26
1.49768e-17
1.33454e-25
6.90841e-26
1.49768e-17
1.29781e-25
6.7083e-26
1.49768e-17
1.26055e-25
6.50602e-26
1.49768e-17
1.22291e-25
6.30229e-26
1.49768e-17
1.18504e-25
6.09766e-26
1.49768e-17
1.14706e-25
5.89296e-26
1.49768e-17
1.1091e-25
5.68894e-26
1.49768e-17
1.07128e-25
5.4859e-26
1.49768e-17
1.03371e-25
5.28489e-26
1.49768e-17
9.96439e-26
5.08689e-26
1.49768e-17
9.59518e-26
4.89165e-26
1.49768e-17
9.23086e-26
4.69919e-26
1.49768e-17
8.87224e-26
4.51013e-26
1.49768e-17
8.51941e-26
4.32486e-26
1.49768e-17
8.17274e-26
4.14364e-26
1.49768e-17
7.83282e-26
3.9665e-26
1.49768e-17
7.50002e-26
3.79364e-26
1.49768e-17
7.17441e-26
3.62614e-26
1.49768e-17
6.85633e-26
3.46293e-26
1.49768e-17
6.54608e-26
3.30362e-26
1.49768e-17
6.2437e-26
3.14871e-26
1.49768e-17
5.94929e-26
2.99834e-26
1.49768e-17
5.66283e-26
2.85233e-26
1.49768e-17
5.38421e-26
2.71051e-26
1.49768e-17
5.11329e-26
2.57297e-26
1.49768e-17
4.85019e-26
2.43915e-26
1.49768e-17
4.59482e-26
2.30892e-26
1.49768e-17
4.34722e-26
2.1822e-26
1.49768e-17
4.10744e-26
2.05894e-26
1.49768e-17
3.87579e-26
1.93882e-26
1.49768e-17
3.65249e-26
1.82176e-26
1.49768e-17
3.43805e-26
1.70797e-26
1.49768e-17
3.2331e-26
1.59779e-26
1.49768e-17
3.03823e-26
1.49157e-26
1.49768e-17
2.85366e-26
1.38991e-26
1.49768e-17
2.67925e-26
1.2932e-26
1.49768e-17
2.51445e-26
1.20076e-26
1.49768e-17
2.35823e-26
1.11253e-26
1.49768e-17
2.20865e-26
1.02946e-26
1.49768e-17
2.06353e-26
9.50168e-27
1.49768e-17
1.92056e-26
8.69552e-27
1.49768e-17
1.77849e-26
7.86327e-27
1.49768e-17
1.63956e-26
7.09707e-27
1.49768e-17
1.50652e-26
6.23961e-27
1.49768e-17
1.39063e-26
5.23199e-27
1.49768e-17
1.34078e-26
5.96472e-27
1.49768e-17
1.39132e-26
7.51645e-27
1.49768e-17
1.52557e-26
5.4016e-27
1.49768e-17
2.15102e-26
1.83713e-26
1.49768e-17
3.22027e-26
2.93088e-26
1.49768e-17
4.10537e-26
6.93505e-27
1.49768e-17
7.40903e-26
1.32028e-25
1.49768e-17
8.68571e-26
5.23564e-26
1.49768e-17
1.25357e-25
2.27757e-25
1.1651e-25
4.63133e-25
1.73664e-17
5.50717e-23
3.75111e-22
1.73665e-17
1.43934e-23
-9.79512e-23
1.73665e-17
1.23133e-23
7.32054e-23
1.73665e-17
3.28299e-25
-3.34436e-23
1.73666e-17
7.39761e-25
-7.78116e-24
1.73666e-17
3.75001e-25
3.83685e-24
1.73666e-17
-1.08339e-25
-5.66375e-24
1.73666e-17
3.83616e-25
-8.68578e-26
1.73666e-17
2.9792e-25
1.2127e-24
1.73666e-17
1.79105e-25
5.11105e-25
1.73666e-17
1.19832e-25
8.73349e-25
1.73666e-17
3.56631e-26
9.30263e-25
1.73666e-17
-4.48888e-26
7.40829e-25
1.73666e-17
-8.78638e-26
6.35827e-25
1.73666e-17
-1.02222e-25
5.58075e-25
1.73666e-17
-9.59317e-26
4.74345e-25
1.73666e-17
-7.66083e-26
4.07726e-25
1.73666e-17
-4.85976e-26
3.56906e-25
1.73666e-17
-1.7039e-26
3.15709e-25
1.73666e-17
1.38748e-26
2.81884e-25
1.73666e-17
4.2145e-26
2.54088e-25
1.73666e-17
6.64071e-26
2.31027e-25
1.73666e-17
8.66724e-26
2.11386e-25
1.73666e-17
1.02528e-25
1.93302e-25
1.73666e-17
1.14344e-25
1.77387e-25
1.73666e-17
1.23681e-25
1.63385e-25
1.73666e-17
1.30946e-25
1.51548e-25
1.73666e-17
1.36319e-25
1.41556e-25
1.73666e-17
1.40167e-25
1.33155e-25
1.73666e-17
1.42838e-25
1.26156e-25
1.73666e-17
1.44568e-25
1.20326e-25
1.73666e-17
1.45537e-25
1.1546e-25
1.73666e-17
1.45895e-25
1.11353e-25
1.73666e-17
1.4574e-25
1.0786e-25
1.73666e-17
1.45139e-25
1.04819e-25
1.73666e-17
1.44159e-25
1.0208e-25
1.73666e-17
1.42838e-25
9.95664e-26
1.73666e-17
1.4121e-25
9.72143e-26
1.73666e-17
1.3931e-25
9.4953e-26
1.73666e-17
1.37164e-25
9.27387e-26
1.73666e-17
1.348e-25
9.05368e-26
1.73666e-17
1.32242e-25
8.8336e-26
1.73666e-17
1.29518e-25
8.61138e-26
1.73666e-17
1.2665e-25
8.38543e-26
1.73666e-17
1.23662e-25
8.15661e-26
1.73666e-17
1.20574e-25
7.92495e-26
1.73666e-17
1.17406e-25
7.69114e-26
1.73666e-17
1.14176e-25
7.45565e-26
1.73666e-17
1.10899e-25
7.21904e-26
1.73666e-17
1.0759e-25
6.98207e-26
1.73666e-17
1.04262e-25
6.74549e-26
1.73666e-17
1.00927e-25
6.51006e-26
1.73666e-17
9.75959e-26
6.27658e-26
1.73666e-17
9.42763e-26
6.04614e-26
1.73666e-17
9.09807e-26
5.8176e-26
1.73666e-17
8.77182e-26
5.59101e-26
1.73666e-17
8.44893e-26
5.36971e-26
1.73666e-17
8.12979e-26
5.15384e-26
1.73666e-17
7.81532e-26
4.94202e-26
1.73666e-17
7.50591e-26
4.73451e-26
1.73666e-17
7.20212e-26
4.53188e-26
1.73666e-17
6.90411e-26
4.33461e-26
1.73666e-17
6.61165e-26
4.14239e-26
1.73666e-17
6.32557e-26
3.95493e-26
1.73666e-17
6.04655e-26
3.77256e-26
1.73666e-17
5.7744e-26
3.59541e-26
1.73666e-17
5.50905e-26
3.42347e-26
1.73666e-17
5.25048e-26
3.25667e-26
1.73666e-17
4.99869e-26
3.0945e-26
1.73666e-17
4.75339e-26
2.93712e-26
1.73666e-17
4.5148e-26
2.78432e-26
1.73666e-17
4.28306e-26
2.63569e-26
1.73666e-17
4.05834e-26
2.49098e-26
1.73666e-17
3.84078e-26
2.34998e-26
1.73666e-17
3.63078e-26
2.21281e-26
1.73666e-17
3.42874e-26
2.0794e-26
1.73666e-17
3.23526e-26
1.95009e-26
1.73666e-17
3.051e-26
1.82534e-26
1.73666e-17
2.8767e-26
1.70524e-26
1.73666e-17
2.7123e-26
1.59091e-26
1.73666e-17
2.55802e-26
1.48241e-26
1.73666e-17
2.4134e-26
1.37923e-26
1.73666e-17
2.27738e-26
1.28049e-26
1.73666e-17
2.14738e-26
1.18553e-26
1.73666e-17
2.02048e-26
1.0928e-26
1.73666e-17
1.89375e-26
9.96772e-27
1.73666e-17
1.76553e-26
8.96662e-27
1.73666e-17
1.63586e-26
8.04031e-27
1.73666e-17
1.50685e-26
6.99485e-27
1.73666e-17
1.38408e-26
5.79124e-27
1.73666e-17
1.29822e-26
6.71594e-27
1.73666e-17
1.28936e-26
8.65422e-27
1.73666e-17
1.36341e-26
5.73563e-27
1.73666e-17
1.77308e-26
2.18246e-26
1.73666e-17
2.52829e-26
3.91423e-26
1.73666e-17
3.4168e-26
1.14361e-26
1.73666e-17
5.61138e-26
1.57826e-25
1.73666e-17
6.25712e-26
8.4317e-26
1.73666e-17
9.22344e-26
2.92607e-25
7.78512e-26
4.70143e-25
1.88192e-17
2.86015e-23
3.97343e-22
1.88193e-17
8.61177e-24
-1.08608e-22
1.88193e-17
7.8764e-24
6.84893e-23
1.88194e-17
1.74962e-24
-3.71506e-23
1.88194e-17
8.62096e-25
-8.01998e-24
1.88195e-17
6.35781e-25
2.8028e-24
1.88195e-17
4.19107e-25
-6.28049e-24
1.88195e-17
4.27781e-25
8.44043e-26
1.88195e-17
2.2499e-25
1.22314e-24
1.88195e-17
7.26457e-26
4.9372e-25
1.88195e-17
-3.90748e-26
9.31732e-25
1.88195e-17
-1.35388e-25
9.74097e-25
1.88195e-17
-2.06347e-25
7.61258e-25
1.88195e-17
-2.40425e-25
6.48496e-25
1.88195e-17
-2.47384e-25
5.65556e-25
1.88195e-17
-2.34067e-25
4.79665e-25
1.88195e-17
-2.08934e-25
4.12317e-25
1.88195e-17
-1.75746e-25
3.63019e-25
1.88195e-17
-1.38907e-25
3.23772e-25
1.88195e-17
-1.01836e-25
2.91096e-25
1.88195e-17
-6.72608e-26
2.64394e-25
1.88195e-17
-3.6718e-26
2.42243e-25
1.88195e-17
-1.06672e-26
2.23217e-25
1.88195e-17
1.11524e-26
2.05666e-25
1.88195e-17
2.94006e-26
1.89048e-25
1.88195e-17
4.43848e-26
1.74867e-25
1.88195e-17
5.66168e-26
1.62739e-25
1.88195e-17
6.65247e-26
1.52452e-25
1.88195e-17
7.44819e-26
1.43717e-25
1.88195e-17
8.08366e-26
1.36394e-25
1.88195e-17
8.58462e-26
1.3023e-25
1.88195e-17
8.97318e-26
1.25008e-25
1.88195e-17
9.26782e-26
1.20563e-25
1.88195e-17
9.4826e-26
1.16736e-25
1.88195e-17
9.62877e-26
1.13376e-25
1.88195e-17
9.71669e-26
1.10374e-25
1.88195e-17
9.7545e-26
1.07618e-25
1.88195e-17
9.74936e-26
1.05021e-25
1.88195e-17
9.70721e-26
1.02522e-25
1.88195e-17
9.63325e-26
1.00069e-25
1.88195e-17
9.53176e-26
9.7634e-26
1.88195e-17
9.40665e-26
9.51951e-26
1.88195e-17
9.26139e-26
9.27368e-26
1.88195e-17
9.09946e-26
9.02483e-26
1.88195e-17
8.92362e-26
8.77294e-26
1.88195e-17
8.73631e-26
8.51854e-26
1.88195e-17
8.53945e-26
8.26232e-26
1.88195e-17
8.33509e-26
8.00459e-26
1.88195e-17
8.12464e-26
7.74605e-26
1.88195e-17
7.9096e-26
7.48758e-26
1.88195e-17
7.69093e-26
7.23017e-26
1.88195e-17
7.46986e-26
6.97435e-26
1.88195e-17
7.24727e-26
6.72054e-26
1.88195e-17
7.02388e-26
6.46975e-26
1.88195e-17
6.80036e-26
6.22281e-26
1.88195e-17
6.57762e-26
5.98002e-26
1.88195e-17
6.35585e-26
5.74145e-26
1.88195e-17
6.13568e-26
5.50717e-26
1.88195e-17
5.91748e-26
5.27778e-26
1.88195e-17
5.70166e-26
5.05353e-26
1.88195e-17
5.4882e-26
4.83545e-26
1.88195e-17
5.27764e-26
4.62282e-26
1.88195e-17
5.07072e-26
4.41388e-26
1.88195e-17
4.86749e-26
4.21115e-26
1.88195e-17
4.66792e-26
4.01539e-26
1.88195e-17
4.47255e-26
3.82504e-26
1.88195e-17
4.28102e-26
3.64008e-26
1.88195e-17
4.09363e-26
3.46093e-26
1.88195e-17
3.91054e-26
3.28727e-26
1.88195e-17
3.73166e-26
3.11819e-26
1.88195e-17
3.5568e-26
2.95423e-26
1.88195e-17
3.38646e-26
2.79507e-26
1.88195e-17
3.22088e-26
2.64038e-26
1.88195e-17
3.06066e-26
2.48975e-26
1.88195e-17
2.90606e-26
2.34334e-26
1.88195e-17
2.75781e-26
2.20119e-26
1.88195e-17
2.61629e-26
2.06356e-26
1.88195e-17
2.48227e-26
1.93093e-26
1.88195e-17
2.35616e-26
1.80389e-26
1.88195e-17
2.23828e-26
1.68252e-26
1.88195e-17
2.12862e-26
1.56748e-26
1.88195e-17
2.02699e-26
1.45896e-26
1.88195e-17
1.93228e-26
1.35576e-26
1.88195e-17
1.84224e-26
1.25579e-26
1.88195e-17
1.75382e-26
1.15624e-26
1.88195e-17
1.66397e-26
1.05121e-26
1.88195e-17
1.56939e-26
9.41145e-27
1.88195e-17
1.46738e-26
8.36885e-27
1.88195e-17
1.35408e-26
7.20726e-27
1.88195e-17
1.22743e-26
5.78573e-27
1.88195e-17
1.10236e-26
6.37391e-27
1.88195e-17
1.00754e-26
8.02595e-27
1.88195e-17
9.53437e-27
4.15966e-27
1.88195e-17
1.04512e-26
1.98738e-26
1.88195e-17
1.29109e-26
3.81713e-26
1.88195e-17
1.68549e-26
1.03643e-26
1.88195e-17
2.79695e-26
1.62452e-25
1.88195e-17
2.8796e-26
7.02191e-26
1.88195e-17
4.19639e-26
3.19832e-25
3.28552e-26
4.73503e-25
1.95093e-17
1.8279e-24
4.0508e-22
1.95095e-17
1.31042e-24
-1.13592e-22
1.95095e-17
1.93345e-24
7.20025e-23
1.95095e-17
1.96527e-24
-3.66647e-23
1.95096e-17
1.85131e-24
-8.79982e-24
1.95096e-17
1.60547e-24
2.77544e-24
1.95096e-17
1.15261e-24
-5.92452e-24
1.95097e-17
7.04373e-25
3.40569e-25
1.95097e-17
3.09421e-25
1.31394e-24
1.95097e-17
9.53982e-27
5.87952e-25
1.95097e-17
-1.98439e-25
1.02993e-24
1.95097e-17
-3.30901e-25
1.03562e-24
1.95097e-17
-4.03251e-25
8.02469e-25
1.95097e-17
-4.30633e-25
6.77753e-25
1.95097e-17
-4.26531e-25
5.84377e-25
1.95097e-17
-4.01746e-25
4.91417e-25
1.95097e-17
-3.65483e-25
4.182e-25
1.95097e-17
-3.2314e-25
3.64476e-25
1.95097e-17
-2.78849e-25
3.23411e-25
1.95097e-17
-2.35483e-25
2.9155e-25
1.95097e-17
-1.95075e-25
2.66173e-25
1.95097e-17
-1.58634e-25
2.44999e-25
1.95097e-17
-1.26443e-25
2.26447e-25
1.95097e-17
-9.81119e-26
2.09052e-25
1.95097e-17
-7.34721e-26
1.92457e-25
1.95097e-17
-5.2545e-26
1.78391e-25
1.95097e-17
-3.48298e-26
1.66368e-25
1.95097e-17
-1.98969e-26
1.56058e-25
1.95097e-17
-7.36435e-27
1.47276e-25
1.95097e-17
3.09271e-27
1.3994e-25
1.95097e-17
1.17726e-26
1.3373e-25
1.95097e-17
1.8934e-26
1.2846e-25
1.95097e-17
2.47987e-26
1.2399e-25
1.95097e-17
2.95536e-26
1.20146e-25
1.95097e-17
3.33665e-26
1.16765e-25
1.95097e-17
3.63841e-26
1.13742e-25
1.95097e-17
3.87386e-26
1.10959e-25
1.95097e-17
4.05406e-26
1.08333e-25
1.95097e-17
4.1883e-26
1.05795e-25
1.95097e-17
4.28404e-26
1.03298e-25
1.95097e-17
4.34741e-26
1.0081e-25
1.95097e-17
4.38395e-26
9.83062e-26
1.95097e-17
4.39821e-26
9.57742e-26
1.95097e-17
4.39388e-26
9.32114e-26
1.95097e-17
4.3742e-26
9.06191e-26
1.95097e-17
4.34181e-26
8.7999e-26
1.95097e-17
4.29896e-26
8.53542e-26
1.95097e-17
4.2475e-26
8.26907e-26
1.95097e-17
4.18877e-26
8.00182e-26
1.95097e-17
4.12388e-26
7.73456e-26
1.95097e-17
4.05374e-26
7.46794e-26
1.95097e-17
3.97909e-26
7.20306e-26
1.95097e-17
3.90072e-26
6.94049e-26
1.95097e-17
3.81916e-26
6.68082e-26
1.95097e-17
3.73481e-26
6.42484e-26
1.95097e-17
3.64812e-26
6.17338e-26
1.95097e-17
3.55961e-26
5.92592e-26
1.95097e-17
3.46968e-26
5.68296e-26
1.95097e-17
3.37859e-26
5.44498e-26
1.95097e-17
3.28638e-26
5.21237e-26
1.95097e-17
3.1931e-26
4.98521e-26
1.95097e-17
3.09888e-26
4.76406e-26
1.95097e-17
3.00442e-26
4.54916e-26
1.95097e-17
2.91022e-26
4.34e-26
1.95097e-17
2.81635e-26
4.13637e-26
1.95097e-17
2.72299e-26
3.93878e-26
1.95097e-17
2.63036e-26
3.74636e-26
1.95097e-17
2.53801e-26
3.55998e-26
1.95097e-17
2.446e-26
3.38006e-26
1.95097e-17
2.35493e-26
3.20536e-26
1.95097e-17
2.2647e-26
3.03564e-26
1.95097e-17
2.17581e-26
2.87101e-26
1.95097e-17
2.08886e-26
2.71101e-26
1.95097e-17
2.00441e-26
2.55566e-26
1.95097e-17
1.92317e-26
2.40461e-26
1.95097e-17
1.84611e-26
2.2577e-26
1.95097e-17
1.77374e-26
2.11472e-26
1.95097e-17
1.70626e-26
1.97693e-26
1.95097e-17
1.64382e-26
1.84489e-26
1.95097e-17
1.58671e-26
1.71868e-26
1.95097e-17
1.53476e-26
1.59947e-26
1.95097e-17
1.48789e-26
1.48741e-26
1.95097e-17
1.4453e-26
1.38148e-26
1.95097e-17
1.40472e-26
1.27968e-26
1.95097e-17
1.36414e-26
1.17779e-26
1.95097e-17
1.32042e-26
1.06969e-26
1.95097e-17
1.26858e-26
9.56306e-27
1.95097e-17
1.2012e-26
8.51278e-27
1.95097e-17
1.10731e-26
7.3575e-27
1.95097e-17
9.77825e-27
5.81269e-27
1.95097e-17
8.05553e-27
6.24629e-27
1.95097e-17
5.7452e-27
8.13237e-27
1.95097e-17
2.78903e-27
4.68008e-27
1.95097e-17
-9.14082e-28
2.12598e-26
1.95097e-17
-4.93468e-27
3.95768e-26
1.95097e-17
-9.46498e-27
1.40667e-26
1.95097e-17
-1.38568e-26
1.76616e-25
1.95097e-17
-1.67831e-26
7.54211e-26
1.95097e-17
-1.99537e-26
3.38336e-25
-1.74698e-26
4.73997e-25
1.95093e-17
-2.4623e-23
4.05373e-22
1.95095e-17
-6.1909e-24
-1.13719e-22
1.95095e-17
-4.19708e-24
7.21422e-23
1.95095e-17
2.28022e-24
-3.65336e-23
1.95096e-17
3.00948e-24
-8.73536e-24
1.95096e-17
2.69786e-24
2.91073e-24
1.95096e-17
1.97876e-24
-5.84545e-24
1.95097e-17
1.04996e-24
3.66715e-25
1.95097e-17
4.49133e-25
1.32418e-24
1.95097e-17
-1.23505e-26
5.89922e-25
1.95097e-17
-3.24833e-25
1.0322e-24
1.95097e-17
-4.97237e-25
1.03308e-24
1.95097e-17
-5.73397e-25
7.97601e-25
1.95097e-17
-5.96832e-25
6.72595e-25
1.95097e-17
-5.83137e-25
5.79168e-25
1.95097e-17
-5.48629e-25
4.85728e-25
1.95097e-17
-5.03407e-25
4.12602e-25
1.95097e-17
-4.53688e-25
3.58983e-25
1.95097e-17
-4.03592e-25
3.18017e-25
1.95097e-17
-3.55474e-25
2.85994e-25
1.95097e-17
-3.10498e-25
2.60227e-25
1.95097e-17
-2.693e-25
2.38988e-25
1.95097e-17
-2.32246e-25
2.20781e-25
1.95097e-17
-1.98694e-25
2.03597e-25
1.95097e-17
-1.69376e-25
1.87914e-25
1.95097e-17
-1.43764e-25
1.743e-25
1.95097e-17
-1.21629e-25
1.62665e-25
1.95097e-17
-1.02577e-25
1.52659e-25
1.95097e-17
-8.62514e-26
1.44152e-25
1.95097e-17
-7.23518e-26
1.37036e-25
1.95097e-17
-6.05614e-26
1.31012e-25
1.95097e-17
-5.06192e-26
1.25919e-25
1.95097e-17
-4.22684e-26
1.21623e-25
1.95097e-17
-3.527e-26
1.17922e-25
1.95097e-17
-2.94045e-26
1.14658e-25
1.95097e-17
-2.44851e-26
1.11718e-25
1.95097e-17
-2.0339e-26
1.09005e-25
1.95097e-17
-1.68261e-26
1.06435e-25
1.95097e-17
-1.38256e-26
1.03951e-25
1.95097e-17
-1.12533e-26
1.01504e-25
1.95097e-17
-9.03289e-27
9.90642e-26
1.95097e-17
-7.10428e-27
9.66137e-26
1.95097e-17
-5.40988e-27
9.41396e-26
1.95097e-17
-3.90871e-27
9.16297e-26
1.95097e-17
-2.56259e-27
8.90879e-26
1.95097e-17
-1.34758e-27
8.65116e-26
1.95097e-17
-2.37553e-28
8.3907e-26
1.95097e-17
7.7591e-28
8.12882e-26
1.95097e-17
1.70713e-27
7.86623e-26
1.95097e-17
2.56266e-27
7.60344e-26
1.95097e-17
3.35317e-27
7.34136e-26
1.95097e-17
4.0774e-27
7.08086e-26
1.95097e-17
4.74394e-27
6.82293e-26
1.95097e-17
5.35297e-27
6.56794e-26
1.95097e-17
5.91051e-27
6.31642e-26
1.95097e-17
6.41517e-27
6.06888e-26
1.95097e-17
6.8739e-27
5.8258e-26
1.95097e-17
7.28536e-27
5.58743e-26
1.95097e-17
7.65447e-27
5.35441e-26
1.95097e-17
7.97694e-27
5.12651e-26
1.95097e-17
8.2583e-27
4.90378e-26
1.95097e-17
8.49575e-27
4.68604e-26
1.95097e-17
8.69873e-27
4.47418e-26
1.95097e-17
8.87432e-27
4.26742e-26
1.95097e-17
9.01902e-27
4.06669e-26
1.95097e-17
9.12381e-27
3.87212e-26
1.95097e-17
9.1993e-27
3.6832e-26
1.95097e-17
9.24937e-27
3.49889e-26
1.95097e-17
9.27415e-27
3.3203e-26
1.95097e-17
9.26041e-27
3.14824e-26
1.95097e-17
9.21806e-27
2.98156e-26
1.95097e-17
9.15678e-27
2.81953e-26
1.95097e-17
9.08819e-27
2.66213e-26
1.95097e-17
9.01386e-27
2.50921e-26
1.95097e-17
8.94536e-27
2.36086e-26
1.95097e-17
8.88975e-27
2.21675e-26
1.95097e-17
8.85686e-27
2.07707e-26
1.95097e-17
8.84016e-27
1.94247e-26
1.95097e-17
8.84487e-27
1.81361e-26
1.95097e-17
8.86838e-27
1.69098e-26
1.95097e-17
8.91807e-27
1.57493e-26
1.95097e-17
8.99704e-27
1.46391e-26
1.95097e-17
9.10459e-27
1.35661e-26
1.95097e-17
9.19775e-27
1.25442e-26
1.95097e-17
9.26464e-27
1.15524e-26
1.95097e-17
9.28108e-27
1.05172e-26
1.95097e-17
9.18956e-27
9.45249e-27
1.95097e-17
8.88727e-27
8.4871e-27
1.95097e-17
8.23961e-27
7.36079e-27
1.95097e-17
7.06952e-27
5.77683e-27
1.95097e-17
5.00547e-27
6.2959e-27
1.95097e-17
1.54333e-27
8.22163e-27
1.95097e-17
-3.51826e-27
4.79451e-27
1.95097e-17
-1.1447e-26
2.11884e-26
1.95097e-17
-2.18411e-26
3.94098e-26
1.95097e-17
-3.40484e-26
1.35844e-26
1.95097e-17
-5.35301e-26
1.75459e-25
1.95097e-17
-6.08709e-26
7.54441e-26
1.95097e-17
-8.07032e-26
3.32841e-25
-6.63534e-26
4.73166e-25
1.88192e-17
-5.10382e-23
3.9765e-22
1.88193e-17
-1.12677e-23
-1.09135e-22
1.88193e-17
-8.01274e-24
6.8634e-23
1.88194e-17
4.14735e-24
-3.69132e-23
1.88194e-17
3.72102e-24
-7.74824e-24
1.88195e-17
3.46251e-24
3.05327e-24
1.88195e-17
2.82442e-24
-6.10646e-24
1.88195e-17
1.3212e-24
1.54093e-25
1.88195e-17
5.53504e-25
1.2317e-24
1.88195e-17
1.34028e-26
4.83958e-25
1.88195e-17
-3.78021e-25
9.21978e-25
1.88195e-17
-5.7746e-25
9.6386e-25
1.88195e-17
-6.52943e-25
7.49721e-25
1.88195e-17
-6.72589e-25
6.3318e-25
1.88195e-17
-6.55363e-25
5.48423e-25
1.88195e-17
-6.1776e-25
4.6047e-25
1.88195e-17
-5.7068e-25
3.91443e-25
1.88195e-17
-5.20815e-25
3.41298e-25
1.88195e-17
-4.71387e-25
3.02554e-25
1.88195e-17
-4.23824e-25
2.71647e-25
1.88195e-17
-3.79206e-25
2.46969e-25
1.88195e-17
-3.37923e-25
2.26738e-25
1.88195e-17
-3.00148e-25
2.09114e-25
1.88195e-17
-2.65276e-25
1.92788e-25
1.88195e-17
-2.34016e-25
1.77472e-25
1.88195e-17
-2.06459e-25
1.64143e-25
1.88195e-17
-1.82422e-25
1.52895e-25
1.88195e-17
-1.61448e-25
1.43275e-25
1.88195e-17
-1.43244e-25
1.35102e-25
1.88195e-17
-1.2756e-25
1.28275e-25
1.88195e-17
-1.14153e-25
1.22572e-25
1.88195e-17
-1.02751e-25
1.17781e-25
1.88195e-17
-9.30835e-26
1.13744e-25
1.88195e-17
-8.48483e-26
1.10274e-25
1.88195e-17
-7.77984e-26
1.07207e-25
1.88195e-17
-7.17096e-26
1.0443e-25
1.88195e-17
-6.64094e-26
1.01863e-25
1.88195e-17
-6.17243e-26
9.94237e-26
1.88195e-17
-5.75524e-26
9.70719e-26
1.88195e-17
-5.38083e-26
9.47625e-26
1.88195e-17
-5.04321e-26
9.24656e-26
1.88195e-17
-4.73441e-26
9.01637e-26
1.88195e-17
-4.44922e-26
8.78386e-26
1.88195e-17
-4.18242e-26
8.54878e-26
1.88195e-17
-3.93136e-26
8.311e-26
1.88195e-17
-3.69264e-26
8.07049e-26
1.88195e-17
-3.46481e-26
7.82838e-26
1.88195e-17
-3.24653e-26
7.58524e-26
1.88195e-17
-3.03747e-26
7.34066e-26
1.88195e-17
-2.83634e-26
7.09634e-26
1.88195e-17
-2.64322e-26
6.85275e-26
1.88195e-17
-2.45708e-26
6.61033e-26
1.88195e-17
-2.27855e-26
6.36972e-26
1.88195e-17
-2.10684e-26
6.13201e-26
1.88195e-17
-1.94248e-26
5.89742e-26
1.88195e-17
-1.78467e-26
5.66643e-26
1.88195e-17
-1.63408e-26
5.43933e-26
1.88195e-17
-1.49022e-26
5.21732e-26
1.88195e-17
-1.35386e-26
5.00027e-26
1.88195e-17
-1.22435e-26
4.78783e-26
1.88195e-17
-1.10186e-26
4.5803e-26
1.88195e-17
-9.85281e-27
4.37748e-26
1.88195e-17
-8.75299e-27
4.17987e-26
1.88195e-17
-7.71238e-27
3.98969e-26
1.88195e-17
-6.7395e-27
3.80482e-26
1.88195e-17
-5.82397e-27
3.62449e-26
1.88195e-17
-4.97046e-27
3.44973e-26
1.88195e-17
-4.16931e-27
3.28138e-26
1.88195e-17
-3.42101e-27
3.11765e-26
1.88195e-17
-2.71769e-27
2.95676e-26
1.88195e-17
-2.05907e-27
2.79834e-26
1.88195e-17
-1.43273e-27
2.64429e-26
1.88195e-17
-8.41828e-28
2.49428e-26
1.88195e-17
-2.76183e-28
2.34849e-26
1.88195e-17
2.60978e-28
2.20737e-26
1.88195e-17
7.82702e-28
2.07187e-26
1.88195e-17
1.28915e-27
1.94181e-26
1.88195e-17
1.78427e-27
1.81681e-26
1.88195e-17
2.26576e-27
1.69725e-26
1.88195e-17
2.74423e-27
1.5841e-26
1.88195e-17
3.21584e-27
1.47739e-26
1.88195e-17
3.68888e-27
1.37695e-26
1.88195e-17
4.16393e-27
1.27925e-26
1.88195e-17
4.63651e-27
1.18393e-26
1.88195e-17
5.07959e-27
1.09033e-26
1.88195e-17
5.45562e-27
9.96652e-27
1.88195e-17
5.705e-27
9.03093e-27
1.88195e-17
5.73053e-27
8.22786e-27
1.88195e-17
5.38946e-27
7.29926e-27
1.88195e-17
4.43798e-27
6.06382e-27
1.88195e-17
2.30463e-27
6.95297e-27
1.88195e-17
-1.64956e-27
9.11407e-27
1.88195e-17
-7.55888e-27
5.6598e-27
1.88195e-17
-1.78303e-26
2.12794e-26
1.88195e-17
-3.22103e-26
3.96763e-26
1.88195e-17
-4.78724e-26
1.1659e-26
1.88195e-17
-7.66856e-26
1.59292e-25
1.88195e-17
-8.82497e-26
7.00803e-26
1.88195e-17
-1.22511e-25
3.05344e-25
-1.0417e-25
4.69694e-25
1.73664e-17
-7.56722e-23
3.7551e-22
1.73665e-17
-1.15433e-23
-9.89136e-23
1.73665e-17
-1.57934e-23
7.33572e-23
1.73665e-17
6.18219e-24
-3.30277e-23
1.73666e-17
2.94204e-24
-7.18941e-24
1.73666e-17
2.50826e-24
4.23143e-24
1.73666e-17
2.97228e-24
-5.43723e-24
1.73666e-17
1.15564e-24
-1.0847e-26
1.73666e-17
3.92916e-25