/*--------------------------------*- C++ -*----------------------------------*\
| =========                 |                                                 |
| \\      /  F ield         | OpenFOAM: The Open Source CFD Toolbox           |
|  \\    /   O peration     | Version:  2412                                  |
|   \\  /    A nd           | Website:  www.openfoam.com                      |
|    \\/     M anipulation  |                                                 |
\*---------------------------------------------------------------------------*/
FoamFile
{
    version     2.0;
    format      ascii;
    arch        "LSB;label=32;scalar=64";
    class       volVectorField;
    location    "0.0001";
    object      U;
}
// * * * * * * * * * * * * * * * * * * * * * * * * * * * * * * * * * * * * * //

dimensions      [0 1 -1 0 0 0 0];

internalField   nonuniform List<vector> 
14400
(
(5.48561e-06 5.88077e-11 5.91909e-11)
(5.48552e-06 -8.85005e-12 -8.96891e-12)
(5.48553e-06 7.97149e-12 8.07704e-12)
(5.48554e-06 -3.00141e-13 -3.18246e-13)
(5.48557e-06 1.3356e-12 1.34779e-12)
(5.48558e-06 1.59611e-12 1.63296e-12)
(5.4856e-06 5.36263e-13 5.50877e-13)
(5.4856e-06 5.56095e-13 5.66966e-13)
(5.48561e-06 3.15215e-13 3.26497e-13)
(5.48561e-06 8.96622e-14 9.17393e-14)
(5.48561e-06 2.02565e-14 2.01438e-14)
(5.48561e-06 -3.53491e-14 -3.56691e-14)
(5.48561e-06 -7.60065e-14 -7.75491e-14)
(5.48561e-06 -8.59346e-14 -8.88187e-14)
(5.48561e-06 -8.56084e-14 -8.87793e-14)
(5.48561e-06 -8.03018e-14 -8.30909e-14)
(5.48561e-06 -7.06765e-14 -7.3069e-14)
(5.48561e-06 -5.916e-14 -6.10085e-14)
(5.48561e-06 -4.75315e-14 -4.8706e-14)
(5.48561e-06 -3.65026e-14 -3.70105e-14)
(5.48561e-06 -2.63366e-14 -2.65782e-14)
(5.48561e-06 -1.65137e-14 -1.74786e-14)
(5.48561e-06 -8.10958e-15 -9.18426e-15)
(5.48561e-06 -1.36624e-15 -2.13981e-15)
(5.48561e-06 3.4903e-15 3.09826e-15)
(5.48561e-06 7.63162e-15 7.29022e-15)
(5.48561e-06 1.08683e-14 1.08763e-14)
(5.48561e-06 1.31016e-14 1.3174e-14)
(5.48561e-06 1.48509e-14 1.49436e-14)
(5.48561e-06 1.62107e-14 1.63035e-14)
(5.48561e-06 1.72458e-14 1.73351e-14)
(5.48561e-06 1.80131e-14 1.80978e-14)
(5.48561e-06 1.85696e-14 1.86479e-14)
(5.48561e-06 1.89577e-14 1.90276e-14)
(5.48561e-06 1.92094e-14 1.92684e-14)
(5.48561e-06 1.93508e-14 1.93961e-14)
(5.48561e-06 1.94015e-14 1.94315e-14)
(5.48561e-06 1.93768e-14 1.93904e-14)
(5.48561e-06 1.92885e-14 1.9286e-14)
(5.48561e-06 1.91467e-14 1.91282e-14)
(5.48561e-06 1.8963e-14 1.89284e-14)
(5.48561e-06 1.87416e-14 1.8691e-14)
(5.48561e-06 1.84873e-14 1.84212e-14)
(5.48561e-06 1.82043e-14 1.81239e-14)
(5.48561e-06 1.78957e-14 1.78023e-14)
(5.48561e-06 1.75653e-14 1.74596e-14)
(5.48561e-06 1.72173e-14 1.71003e-14)
(5.48561e-06 1.6854e-14 1.67263e-14)
(5.48561e-06 1.64777e-14 1.63404e-14)
(5.48561e-06 1.60903e-14 1.59441e-14)
(5.48561e-06 1.56942e-14 1.55398e-14)
(5.48561e-06 1.52906e-14 1.51286e-14)
(5.48561e-06 1.48815e-14 1.47127e-14)
(5.48561e-06 1.44671e-14 1.42926e-14)
(5.48561e-06 1.40499e-14 1.38706e-14)
(5.48561e-06 1.36314e-14 1.34477e-14)
(5.48561e-06 1.32122e-14 1.3025e-14)
(5.48561e-06 1.27932e-14 1.26028e-14)
(5.48561e-06 1.23763e-14 1.2183e-14)
(5.48561e-06 1.19616e-14 1.17657e-14)
(5.48561e-06 1.15499e-14 1.13526e-14)
(5.48561e-06 1.1141e-14 1.09439e-14)
(5.48561e-06 1.07364e-14 1.05401e-14)
(5.48561e-06 1.03373e-14 1.01412e-14)
(5.48561e-06 9.94457e-15 9.74853e-15)
(5.48561e-06 9.55746e-15 9.3621e-15)
(5.48561e-06 9.17667e-15 8.98283e-15)
(5.48561e-06 8.80231e-15 8.61042e-15)
(5.48561e-06 8.43521e-15 8.24586e-15)
(5.48561e-06 8.07523e-15 7.88863e-15)
(5.48561e-06 7.72327e-15 7.54002e-15)
(5.48561e-06 7.37941e-15 7.19992e-15)
(5.48561e-06 7.04462e-15 6.86955e-15)
(5.48561e-06 6.71918e-15 6.54883e-15)
(5.48561e-06 6.40449e-15 6.23954e-15)
(5.48561e-06 6.10139e-15 5.94192e-15)
(5.48561e-06 5.81076e-15 5.65557e-15)
(5.48561e-06 5.53173e-15 5.37908e-15)
(5.48561e-06 5.26446e-15 5.11331e-15)
(5.48561e-06 5.00616e-15 4.85895e-15)
(5.48561e-06 4.75476e-15 4.61712e-15)
(5.48561e-06 4.51156e-15 4.38147e-15)
(5.48561e-06 4.27489e-15 4.15183e-15)
(5.48561e-06 4.03908e-15 3.9282e-15)
(5.48561e-06 3.80586e-15 3.70529e-15)
(5.48561e-06 3.57059e-15 3.47398e-15)
(5.48561e-06 3.32593e-15 3.23224e-15)
(5.48561e-06 3.07526e-15 2.99007e-15)
(5.48561e-06 2.81779e-15 2.73966e-15)
(5.48561e-06 2.50492e-15 2.42465e-15)
(5.48561e-06 2.2857e-15 2.18954e-15)
(5.48561e-06 2.27314e-15 2.15773e-15)
(5.48561e-06 1.84183e-15 1.70752e-15)
(5.48561e-06 2.62055e-15 2.48077e-15)
(5.48561e-06 4.90328e-15 4.88533e-15)
(5.48561e-06 1.66454e-15 1.44455e-15)
(5.48561e-06 1.5419e-14 1.5756e-14)
(5.48561e-06 1.04304e-14 1.10046e-14)
(5.48561e-06 2.87807e-14 3.00148e-14)
(5.48561e-06 8.7793e-14 8.86433e-14)
(1.15068e-05 1.21492e-10 2.63222e-10)
(1.15066e-05 -6.68163e-12 -5.78179e-11)
(1.15067e-05 1.94178e-11 3.80047e-11)
(1.15067e-05 -5.53501e-12 -1.94099e-12)
(1.15067e-05 -2.39069e-12 2.64691e-12)
(1.15068e-05 2.40715e-13 7.10983e-12)
(1.15068e-05 -1.09442e-12 1.32003e-12)
(1.15068e-05 6.16155e-14 1.55144e-12)
(1.15068e-05 3.7756e-13 1.05202e-12)
(1.15068e-05 2.52572e-13 1.02141e-13)
(1.15068e-05 2.70724e-13 -1.57975e-13)
(1.15068e-05 2.44425e-13 -3.08756e-13)
(1.15068e-05 1.74533e-13 -4.27157e-13)
(1.15068e-05 1.38611e-13 -4.62224e-13)
(1.15068e-05 1.15112e-13 -4.51713e-13)
(1.15068e-05 9.77059e-14 -4.21158e-13)
(1.15068e-05 8.91824e-14 -3.78367e-13)
(1.15068e-05 8.73909e-14 -3.29319e-13)
(1.15068e-05 8.91034e-14 -2.79467e-13)
(1.15068e-05 9.30919e-14 -2.31623e-13)
(1.15068e-05 9.67197e-14 -1.88028e-13)
(1.15068e-05 9.91376e-14 -1.49785e-13)
(1.15068e-05 1.0081e-13 -1.17385e-13)
(1.15068e-05 1.01614e-13 -9.05236e-14)
(1.15068e-05 1.01516e-13 -6.80852e-14)
(1.15068e-05 1.01121e-13 -4.95337e-14)
(1.15068e-05 9.96619e-14 -3.47274e-14)
(1.15068e-05 9.78171e-14 -2.28998e-14)
(1.15068e-05 9.59844e-14 -1.34369e-14)
(1.15068e-05 9.42234e-14 -5.97907e-15)
(1.15068e-05 9.25379e-14 -2.141e-16)
(1.15068e-05 9.09192e-14 4.18833e-15)
(1.15068e-05 8.93459e-14 7.59232e-15)
(1.15068e-05 8.7803e-14 1.02497e-14)
(1.15068e-05 8.6283e-14 1.23181e-14)
(1.15068e-05 8.47666e-14 1.39102e-14)
(1.15068e-05 8.32385e-14 1.51269e-14)
(1.15068e-05 8.16871e-14 1.60645e-14)
(1.15068e-05 8.00971e-14 1.67931e-14)
(1.15068e-05 7.84599e-14 1.73714e-14)
(1.15068e-05 7.67704e-14 1.78411e-14)
(1.15068e-05 7.50257e-14 1.81953e-14)
(1.15068e-05 7.32291e-14 1.84734e-14)
(1.15068e-05 7.13875e-14 1.87166e-14)
(1.15068e-05 6.95056e-14 1.89148e-14)
(1.15068e-05 6.75877e-14 1.90662e-14)
(1.15068e-05 6.56408e-14 1.91819e-14)
(1.15068e-05 6.3673e-14 1.92623e-14)
(1.15068e-05 6.16914e-14 1.93102e-14)
(1.15068e-05 5.97023e-14 1.93256e-14)
(1.15068e-05 5.77124e-14 1.93109e-14)
(1.15068e-05 5.5728e-14 1.92644e-14)
(1.15068e-05 5.37541e-14 1.91875e-14)
(1.15068e-05 5.17971e-14 1.90806e-14)
(1.15068e-05 4.98615e-14 1.89522e-14)
(1.15068e-05 4.79501e-14 1.87989e-14)
(1.15068e-05 4.60671e-14 1.86159e-14)
(1.15068e-05 4.42153e-14 1.84029e-14)
(1.15068e-05 4.23968e-14 1.81644e-14)
(1.15068e-05 4.06144e-14 1.79042e-14)
(1.15068e-05 3.88703e-14 1.76248e-14)
(1.15068e-05 3.71671e-14 1.73226e-14)
(1.15068e-05 3.55073e-14 1.70037e-14)
(1.15068e-05 3.38892e-14 1.66681e-14)
(1.15068e-05 3.23116e-14 1.63188e-14)
(1.15068e-05 3.07759e-14 1.59566e-14)
(1.15068e-05 2.92829e-14 1.55844e-14)
(1.15068e-05 2.78325e-14 1.52018e-14)
(1.15068e-05 2.64237e-14 1.48128e-14)
(1.15068e-05 2.50566e-14 1.44176e-14)
(1.15068e-05 2.37293e-14 1.40213e-14)
(1.15068e-05 2.24411e-14 1.36251e-14)
(1.15068e-05 2.11918e-14 1.32335e-14)
(1.15068e-05 1.99813e-14 1.28485e-14)
(1.15068e-05 1.88089e-14 1.24792e-14)
(1.15068e-05 1.76748e-14 1.21316e-14)
(1.15068e-05 1.6581e-14 1.18105e-14)
(1.15068e-05 1.55313e-14 1.15148e-14)
(1.15068e-05 1.45295e-14 1.12402e-14)
(1.15068e-05 1.35763e-14 1.09763e-14)
(1.15068e-05 1.26716e-14 1.07179e-14)
(1.15068e-05 1.1814e-14 1.04489e-14)
(1.15068e-05 1.10007e-14 1.01611e-14)
(1.15068e-05 1.02264e-14 9.83848e-15)
(1.15068e-05 9.48593e-15 9.46427e-15)
(1.15068e-05 8.76533e-15 9.02554e-15)
(1.15068e-05 8.05525e-15 8.53849e-15)
(1.15068e-05 7.37362e-15 8.04129e-15)
(1.15068e-05 6.70589e-15 7.41341e-15)
(1.15068e-05 6.11482e-15 6.57262e-15)
(1.15068e-05 6.12748e-15 6.23235e-15)
(1.15068e-05 6.75036e-15 5.67912e-15)
(1.15068e-05 7.43691e-15 3.00995e-15)
(1.15068e-05 1.2366e-14 8.31178e-15)
(1.15068e-05 1.91364e-14 1.21028e-14)
(1.15068e-05 2.00469e-14 -3.47328e-15)
(1.15068e-05 5.66879e-14 6.58066e-14)
(1.15068e-05 5.53547e-14 5.1364e-15)
(1.15068e-05 1.08162e-13 1.12624e-13)
(1.15068e-05 1.85923e-13 3.39318e-13)
(1.52808e-05 9.05872e-11 3.09186e-10)
(1.52806e-05 5.17535e-12 -1.19387e-10)
(1.52808e-05 2.6083e-11 6.83749e-11)
(1.52807e-05 -2.34015e-12 -1.15895e-11)
(1.52808e-05 1.55993e-12 1.02839e-12)
(1.52808e-05 2.49861e-12 1.04404e-11)
(1.52809e-05 2.19045e-13 9.81141e-13)
(1.52809e-05 9.76911e-13 2.05539e-12)
(1.52809e-05 8.6837e-13 1.64814e-12)
(1.52809e-05 5.29362e-13 2.68009e-13)
(1.52809e-05 4.00546e-13 -6.58621e-14)
(1.52809e-05 2.73532e-13 -2.4116e-13)
(1.52809e-05 1.59124e-13 -4.12166e-13)
(1.52809e-05 9.71056e-14 -4.64488e-13)
(1.52809e-05 7.08425e-14 -4.53772e-13)
(1.52809e-05 6.53018e-14 -4.24988e-13)
(1.52809e-05 7.62086e-14 -3.85068e-13)
(1.52809e-05 9.47751e-14 -3.3717e-13)
(1.52809e-05 1.15569e-13 -2.8512e-13)
(1.52809e-05 1.35224e-13 -2.32539e-13)
(1.52809e-05 1.52168e-13 -1.83544e-13)
(1.52809e-05 1.65327e-13 -1.40095e-13)
(1.52809e-05 1.75435e-13 -1.03532e-13)
(1.52809e-05 1.81624e-13 -7.35934e-14)
(1.52809e-05 1.84932e-13 -4.84986e-14)
(1.52809e-05 1.86454e-13 -2.777e-14)
(1.52809e-05 1.86974e-13 -1.09953e-14)
(1.52809e-05 1.86732e-13 2.31842e-15)
(1.52809e-05 1.8574e-13 1.28393e-14)
(1.52809e-05 1.84269e-13 2.10459e-14)
(1.52809e-05 1.82473e-13 2.73592e-14)
(1.52809e-05 1.80451e-13 3.21654e-14)
(1.52809e-05 1.78252e-13 3.57648e-14)
(1.52809e-05 1.75908e-13 3.84201e-14)
(1.52809e-05 1.73426e-13 4.03693e-14)
(1.52809e-05 1.70803e-13 4.17492e-14)
(1.52809e-05 1.6804e-13 4.26791e-14)
(1.52809e-05 1.65137e-13 4.32871e-14)
(1.52809e-05 1.62093e-13 4.36409e-14)
(1.52809e-05 1.58906e-13 4.3784e-14)
(1.52809e-05 1.5558e-13 4.37475e-14)
(1.52809e-05 1.52127e-13 4.35649e-14)
(1.52809e-05 1.48555e-13 4.32718e-14)
(1.52809e-05 1.44876e-13 4.28947e-14)
(1.52809e-05 1.41109e-13 4.24552e-14)
(1.52809e-05 1.37267e-13 4.19498e-14)
(1.52809e-05 1.33364e-13 4.13876e-14)
(1.52809e-05 1.29416e-13 4.07804e-14)
(1.52809e-05 1.25437e-13 4.01325e-14)
(1.52809e-05 1.21441e-13 3.94463e-14)
(1.52809e-05 1.1744e-13 3.87259e-14)
(1.52809e-05 1.13448e-13 3.79743e-14)
(1.52809e-05 1.09476e-13 3.71928e-14)
(1.52809e-05 1.05535e-13 3.6389e-14)
(1.52809e-05 1.01631e-13 3.55595e-14)
(1.52809e-05 9.77711e-14 3.47019e-14)
(1.52809e-05 9.39676e-14 3.38303e-14)
(1.52809e-05 9.02267e-14 3.29534e-14)
(1.52809e-05 8.65506e-14 3.20647e-14)
(1.52809e-05 8.29437e-14 3.11657e-14)
(1.52809e-05 7.94113e-14 3.02601e-14)
(1.52809e-05 7.5959e-14 2.93528e-14)
(1.52809e-05 7.25874e-14 2.84475e-14)
(1.52809e-05 6.92972e-14 2.75393e-14)
(1.52809e-05 6.60901e-14 2.66302e-14)
(1.52809e-05 6.29678e-14 2.57237e-14)
(1.52809e-05 5.99312e-14 2.48232e-14)
(1.52809e-05 5.69801e-14 2.39302e-14)
(1.52809e-05 5.41127e-14 2.30443e-14)
(1.52809e-05 5.13286e-14 2.2173e-14)
(1.52809e-05 4.8627e-14 2.1316e-14)
(1.52809e-05 4.60067e-14 2.04779e-14)
(1.52809e-05 4.34675e-14 1.96629e-14)
(1.52809e-05 4.10097e-14 1.88778e-14)
(1.52809e-05 3.8634e-14 1.81233e-14)
(1.52809e-05 3.63413e-14 1.7402e-14)
(1.52809e-05 3.41354e-14 1.67163e-14)
(1.52809e-05 3.20221e-14 1.60692e-14)
(1.52809e-05 3.00072e-14 1.54535e-14)
(1.52809e-05 2.80933e-14 1.48668e-14)
(1.52809e-05 2.62794e-14 1.42987e-14)
(1.52809e-05 2.45596e-14 1.37405e-14)
(1.52809e-05 2.29266e-14 1.31762e-14)
(1.52809e-05 2.13736e-14 1.2601e-14)
(1.52809e-05 1.9883e-14 1.1997e-14)
(1.52809e-05 1.84319e-14 1.13367e-14)
(1.52809e-05 1.70046e-14 1.06435e-14)
(1.52809e-05 1.5628e-14 9.96529e-15)
(1.52809e-05 1.4309e-14 9.08824e-15)
(1.52809e-05 1.31442e-14 7.89543e-15)
(1.52809e-05 1.2699e-14 7.47448e-15)
(1.52809e-05 1.31678e-14 6.39102e-15)
(1.52809e-05 1.42218e-14 1.33514e-15)
(1.52809e-05 2.0789e-14 9.10676e-15)
(1.52809e-05 3.12254e-14 1.18868e-14)
(1.52809e-05 3.71666e-14 -1.87448e-14)
(1.52809e-05 7.52217e-14 9.16162e-14)
(1.52809e-05 8.29248e-14 -2.76291e-14)
(1.52809e-05 1.24125e-13 1.06052e-13)
(1.52809e-05 1.30803e-13 3.67188e-13)
(1.77191e-05 6.89875e-11 3.34447e-10)
(1.7719e-05 1.98062e-11 -1.10876e-10)
(1.77191e-05 1.71104e-11 7.82292e-11)
(1.77191e-05 -3.04267e-13 -1.82261e-11)
(1.77192e-05 1.79343e-12 4.4041e-12)
(1.77192e-05 1.10436e-12 1.20506e-11)
(1.77192e-05 -6.90601e-14 4.93384e-13)
(1.77192e-05 5.78226e-13 2.46529e-12)
(1.77192e-05 4.54183e-13 1.91766e-12)
(1.77192e-05 2.74833e-13 2.99822e-13)
(1.77193e-05 2.10988e-13 -1.19906e-14)
(1.77193e-05 1.22693e-13 -1.78945e-13)
(1.77193e-05 3.3067e-14 -3.84211e-13)
(1.77193e-05 -1.43925e-14 -4.45412e-13)
(1.77193e-05 -3.13741e-14 -4.33893e-13)
(1.77193e-05 -2.71273e-14 -4.08534e-13)
(1.77192e-05 -8.75616e-15 -3.67847e-13)
(1.77192e-05 1.74414e-14 -3.17857e-13)
(1.77192e-05 4.61464e-14 -2.68038e-13)
(1.77192e-05 7.29364e-14 -2.21629e-13)
(1.77192e-05 9.73216e-14 -1.78843e-13)
(1.77192e-05 1.18174e-13 -1.40726e-13)
(1.77192e-05 1.3533e-13 -1.07224e-13)
(1.77192e-05 1.47899e-13 -7.78692e-14)
(1.77192e-05 1.56468e-13 -5.13667e-14)
(1.77192e-05 1.62957e-13 -3.02928e-14)
(1.77192e-05 1.67708e-13 -1.32564e-14)
(1.77192e-05 1.70751e-13 3.28614e-16)
(1.77192e-05 1.72482e-13 1.10536e-14)
(1.77192e-05 1.73263e-13 1.94457e-14)
(1.77192e-05 1.73325e-13 2.59392e-14)
(1.77192e-05 1.72829e-13 3.09341e-14)
(1.77192e-05 1.71898e-13 3.47354e-14)
(1.77192e-05 1.70609e-13 3.76105e-14)
(1.77192e-05 1.68999e-13 3.97306e-14)
(1.77192e-05 1.67103e-13 4.12176e-14)
(1.77192e-05 1.64944e-13 4.22326e-14)
(1.77192e-05 1.6254e-13 4.29127e-14)
(1.77192e-05 1.59912e-13 4.33266e-14)
(1.77192e-05 1.57077e-13 4.35329e-14)
(1.77192e-05 1.54053e-13 4.35656e-14)
(1.77192e-05 1.50863e-13 4.34523e-14)
(1.77192e-05 1.47524e-13 4.32205e-14)
(1.77192e-05 1.44051e-13 4.29031e-14)
(1.77192e-05 1.40467e-13 4.25173e-14)
(1.77192e-05 1.36792e-13 4.20631e-14)
(1.77192e-05 1.33045e-13 4.15529e-14)
(1.77192e-05 1.29242e-13 4.09943e-14)
(1.77192e-05 1.25397e-13 4.03901e-14)
(1.77192e-05 1.21528e-13 3.97449e-14)
(1.77192e-05 1.17648e-13 3.90621e-14)
(1.77192e-05 1.13769e-13 3.83454e-14)
(1.77192e-05 1.09902e-13 3.75982e-14)
(1.77192e-05 1.06059e-13 3.68262e-14)
(1.77192e-05 1.02248e-13 3.60174e-14)
(1.77192e-05 9.84768e-14 3.51762e-14)
(1.77192e-05 9.47533e-14 3.4327e-14)
(1.77192e-05 9.10831e-14 3.34712e-14)
(1.77192e-05 8.74719e-14 3.26016e-14)
(1.77192e-05 8.39239e-14 3.17169e-14)
(1.77192e-05 8.04454e-14 3.08249e-14)
(1.77192e-05 7.70379e-14 2.99276e-14)
(1.77192e-05 7.36996e-14 2.90184e-14)
(1.77192e-05 7.04384e-14 2.8107e-14)
(1.77192e-05 6.72602e-14 2.72011e-14)
(1.77192e-05 6.41634e-14 2.63002e-14)
(1.77192e-05 6.11477e-14 2.54024e-14)
(1.77192e-05 5.8213e-14 2.45117e-14)
(1.77192e-05 5.53585e-14 2.36275e-14)
(1.77192e-05 5.25809e-14 2.27542e-14)
(1.77193e-05 4.98826e-14 2.18948e-14)
(1.77193e-05 4.72636e-14 2.10536e-14)
(1.77193e-05 4.47247e-14 2.02344e-14)
(1.77193e-05 4.22666e-14 1.94424e-14)
(1.77193e-05 3.98929e-14 1.86835e-14)
(1.77193e-05 3.76072e-14 1.79599e-14)
(1.77193e-05 3.54156e-14 1.72731e-14)
(1.77193e-05 3.33249e-14 1.66238e-14)
(1.77193e-05 3.13423e-14 1.60062e-14)
(1.77193e-05 2.94683e-14 1.54185e-14)
(1.77193e-05 2.77041e-14 1.4847e-14)
(1.77193e-05 2.60434e-14 1.42832e-14)
(1.77193e-05 2.44746e-14 1.37158e-14)
(1.77193e-05 2.29742e-14 1.31333e-14)
(1.77193e-05 2.15163e-14 1.25067e-14)
(1.77193e-05 2.00743e-14 1.18101e-14)
(1.77193e-05 1.86349e-14 1.1081e-14)
(1.77193e-05 1.72166e-14 1.03723e-14)
(1.77193e-05 1.58594e-14 9.41377e-15)
(1.77193e-05 1.46568e-14 8.07781e-15)
(1.77193e-05 1.40312e-14 7.83006e-15)
(1.77193e-05 1.44268e-14 7.07673e-15)
(1.77193e-05 1.57604e-14 1.37032e-15)
(1.77193e-05 2.16067e-14 1.14865e-14)
(1.77193e-05 3.2071e-14 1.8964e-14)
(1.77193e-05 4.21927e-14 -1.96164e-14)
(1.77193e-05 7.01296e-14 1.07749e-13)
(1.77193e-05 8.34709e-14 -3.42755e-15)
(1.77193e-05 1.19372e-13 1.60994e-13)
(1.77193e-05 1.0151e-13 3.75128e-13)
(1.92015e-05 4.34072e-11 3.53593e-10)
(1.92013e-05 1.13002e-11 -1.21747e-10)
(1.92015e-05 9.35998e-12 7.37731e-11)
(1.92014e-05 1.20889e-12 -2.00504e-11)
(1.92015e-05 5.2729e-13 4.84076e-12)
(1.92016e-05 8.88334e-14 1.12667e-11)
(1.92016e-05 1.87359e-15 8.93165e-14)
(1.92016e-05 3.13586e-13 2.7059e-12)
(1.92016e-05 1.95462e-13 1.96952e-12)
(1.92016e-05 9.08556e-14 2.7982e-13)
(1.92016e-05 2.69486e-14 2.5213e-14)
(1.92016e-05 -4.99465e-14 -1.63488e-13)
(1.92016e-05 -1.19351e-13 -3.93485e-13)
(1.92016e-05 -1.57332e-13 -4.61468e-13)
(1.92016e-05 -1.68472e-13 -4.53641e-13)
(1.92016e-05 -1.59233e-13 -4.28496e-13)
(1.92016e-05 -1.38298e-13 -3.82971e-13)
(1.92016e-05 -1.0793e-13 -3.26225e-13)
(1.92016e-05 -7.31779e-14 -2.71802e-13)
(1.92016e-05 -3.78281e-14 -2.23906e-13)
(1.92016e-05 -5.20007e-15 -1.80812e-13)
(1.92016e-05 2.27082e-14 -1.42435e-13)
(1.92016e-05 4.59782e-14 -1.07869e-13)
(1.92016e-05 6.51574e-14 -7.68397e-14)
(1.92016e-05 8.05902e-14 -5.12341e-14)
(1.92016e-05 9.29394e-14 -2.98195e-14)
(1.92016e-05 1.02686e-13 -1.23696e-14)
(1.92016e-05 1.10256e-13 1.56879e-15)
(1.92016e-05 1.16052e-13 1.25278e-14)
(1.92016e-05 1.20429e-13 2.10892e-14)
(1.92016e-05 1.23646e-13 2.7707e-14)
(1.92016e-05 1.25911e-13 3.27698e-14)
(1.92016e-05 1.27399e-13 3.66021e-14)
(1.92016e-05 1.28229e-13 3.9457e-14)
(1.92016e-05 1.28494e-13 4.15348e-14)
(1.92016e-05 1.28282e-13 4.30206e-14)
(1.92016e-05 1.27652e-13 4.40466e-14)
(1.92016e-05 1.26651e-13 4.4709e-14)
(1.92016e-05 1.25327e-13 4.50851e-14)
(1.92016e-05 1.23718e-13 4.52341e-14)
(1.92016e-05 1.21857e-13 4.52091e-14)
(1.92016e-05 1.19777e-13 4.50417e-14)
(1.92016e-05 1.17511e-13 4.47605e-14)
(1.92016e-05 1.15087e-13 4.43819e-14)
(1.92016e-05 1.12531e-13 4.39234e-14)
(1.92016e-05 1.09867e-13 4.33976e-14)
(1.92016e-05 1.07114e-13 4.28187e-14)
(1.92016e-05 1.04292e-13 4.21903e-14)
(1.92016e-05 1.01415e-13 4.15189e-14)
(1.92016e-05 9.85005e-14 4.08085e-14)
(1.92016e-05 9.55595e-14 4.0066e-14)
(1.92016e-05 9.26045e-14 3.92913e-14)
(1.92016e-05 8.96451e-14 3.8486e-14)
(1.92016e-05 8.669e-14 3.76557e-14)
(1.92016e-05 8.37499e-14 3.68043e-14)
(1.92016e-05 8.08339e-14 3.59283e-14)
(1.92016e-05 7.79414e-14 3.50372e-14)
(1.92016e-05 7.50779e-14 3.41331e-14)
(1.92016e-05 7.22505e-14 3.32163e-14)
(1.92016e-05 6.94642e-14 3.2289e-14)
(1.92016e-05 6.67217e-14 3.13617e-14)
(1.92016e-05 6.40265e-14 3.04229e-14)
(1.92016e-05 6.13821e-14 2.94686e-14)
(1.92016e-05 5.87927e-14 2.852e-14)
(1.92016e-05 5.62606e-14 2.7585e-14)
(1.92016e-05 5.37883e-14 2.66536e-14)
(1.92016e-05 5.13733e-14 2.57241e-14)
(1.92016e-05 4.90168e-14 2.48037e-14)
(1.92016e-05 4.672e-14 2.38999e-14)
(1.92016e-05 4.44806e-14 2.30044e-14)
(1.92016e-05 4.22982e-14 2.21255e-14)
(1.92016e-05 4.01766e-14 2.12661e-14)
(1.92016e-05 3.81176e-14 2.04315e-14)
(1.92016e-05 3.61254e-14 1.96231e-14)
(1.92016e-05 3.42026e-14 1.88502e-14)
(1.92016e-05 3.23552e-14 1.81141e-14)
(1.92016e-05 3.05877e-14 1.74185e-14)
(1.92016e-05 2.8909e-14 1.67604e-14)
(1.92016e-05 2.7325e-14 1.61378e-14)
(1.92016e-05 2.58369e-14 1.55375e-14)
(1.92016e-05 2.44461e-14 1.4956e-14)
(1.92016e-05 2.31507e-14 1.43791e-14)
(1.92016e-05 2.19406e-14 1.37991e-14)
(1.92016e-05 2.07873e-14 1.32051e-14)
(1.92016e-05 1.96559e-14 1.25698e-14)
(1.92016e-05 1.85138e-14 1.18603e-14)
(1.92016e-05 1.73398e-14 1.1108e-14)
(1.92016e-05 1.61258e-14 1.03573e-14)
(1.92016e-05 1.48682e-14 9.31929e-15)
(1.92016e-05 1.35895e-14 7.80414e-15)
(1.92016e-05 1.25395e-14 7.4418e-15)
(1.92016e-05 1.21238e-14 6.58292e-15)
(1.92016e-05 1.2457e-14 1.17275e-16)
(1.92016e-05 1.52756e-14 9.82425e-15)
(1.92016e-05 2.08108e-14 1.78629e-14)
(1.92016e-05 2.84747e-14 -2.16221e-14)
(1.92016e-05 4.60074e-14 1.10543e-13)
(1.92016e-05 4.90343e-14 -2.2401e-14)
(1.92016e-05 7.15979e-14 1.83152e-13)
(1.92016e-05 5.91724e-14 3.80683e-13)
(1.99057e-05 1.51911e-11 3.58959e-10)
(1.99055e-05 5.14936e-12 -1.26282e-10)
(1.99056e-05 5.98046e-12 7.73024e-11)
(1.99056e-05 2.3093e-12 -1.922e-11)
(1.99057e-05 1.29213e-12 4.42683e-12)
(1.99057e-05 1.09883e-12 1.10966e-11)
(1.99058e-05 7.84935e-13 3.25646e-13)
(1.99058e-05 5.47505e-13 2.94544e-12)
(1.99058e-05 2.44135e-13 2.03851e-12)
(1.99058e-05 3.18318e-14 3.20453e-13)
(1.99058e-05 -1.25848e-13 9.0716e-14)
(1.99058e-05 -2.39133e-13 -1.2719e-13)
(1.99058e-05 -3.12318e-13 -3.73419e-13)
(1.99058e-05 -3.42249e-13 -4.47332e-13)
(1.99058e-05 -3.43354e-13 -4.4553e-13)
(1.99058e-05 -3.24041e-13 -4.25689e-13)
(1.99058e-05 -2.92443e-13 -3.86479e-13)
(1.99058e-05 -2.53823e-13 -3.35244e-13)
(1.99058e-05 -2.12448e-13 -2.82431e-13)
(1.99058e-05 -1.71354e-13 -2.32386e-13)
(1.99058e-05 -1.32962e-13 -1.86438e-13)
(1.99058e-05 -9.85353e-14 -1.45246e-13)
(1.99058e-05 -6.86508e-14 -1.08683e-13)
(1.99058e-05 -4.30825e-14 -7.67346e-14)
(1.99058e-05 -2.09654e-14 -5.17604e-14)
(1.99058e-05 -2.51838e-15 -3.03094e-14)
(1.99058e-05 1.28373e-14 -1.27245e-14)
(1.99058e-05 2.55662e-14 1.37138e-15)
(1.99058e-05 3.60594e-14 1.2488e-14)
(1.99058e-05 4.466e-14 2.11971e-14)
(1.99058e-05 5.16502e-14 2.79381e-14)
(1.99058e-05 5.72849e-14 3.30932e-14)
(1.99058e-05 6.17755e-14 3.7005e-14)
(1.99058e-05 6.52869e-14 3.99283e-14)
(1.99058e-05 6.79626e-14 4.20646e-14)
(1.99058e-05 6.99307e-14 4.36097e-14)
(1.99058e-05 7.13011e-14 4.46843e-14)
(1.99058e-05 7.21667e-14 4.53849e-14)
(1.99058e-05 7.26063e-14 4.5791e-14)
(1.99058e-05 7.26845e-14 4.5956e-14)
(1.99058e-05 7.24544e-14 4.59329e-14)
(1.99058e-05 7.19648e-14 4.57583e-14)
(1.99058e-05 7.12568e-14 4.5462e-14)
(1.99058e-05 7.03672e-14 4.50651e-14)
(1.99058e-05 6.93271e-14 4.45903e-14)
(1.99058e-05 6.81621e-14 4.40492e-14)
(1.99058e-05 6.68934e-14 4.34487e-14)
(1.99058e-05 6.55423e-14 4.27958e-14)
(1.99058e-05 6.41234e-14 4.20982e-14)
(1.99058e-05 6.26496e-14 4.1362e-14)
(1.99058e-05 6.11306e-14 4.05899e-14)
(1.99058e-05 5.95771e-14 3.9787e-14)
(1.99058e-05 5.7998e-14 3.89551e-14)
(1.99058e-05 5.63988e-14 3.80962e-14)
(1.99058e-05 5.47847e-14 3.72167e-14)
(1.99058e-05 5.3163e-14 3.6321e-14)
(1.99058e-05 5.15381e-14 3.54061e-14)
(1.99058e-05 4.99151e-14 3.44751e-14)
(1.99058e-05 4.82973e-14 3.35317e-14)
(1.99058e-05 4.66869e-14 3.25821e-14)
(1.99058e-05 4.50833e-14 3.16275e-14)
(1.99058e-05 4.34913e-14 3.06684e-14)
(1.99058e-05 4.19192e-14 2.97058e-14)
(1.99058e-05 4.03676e-14 2.8744e-14)
(1.99058e-05 3.88376e-14 2.77896e-14)
(1.99058e-05 3.73327e-14 2.68373e-14)
(1.99058e-05 3.58517e-14 2.58835e-14)
(1.99058e-05 3.43934e-14 2.49344e-14)
(1.99058e-05 3.29596e-14 2.40034e-14)
(1.99058e-05 3.15541e-14 2.30904e-14)
(1.99058e-05 3.0175e-14 2.21942e-14)
(1.99058e-05 2.88264e-14 2.13204e-14)
(1.99058e-05 2.7513e-14 2.04727e-14)
(1.99058e-05 2.62406e-14 1.96554e-14)
(1.99058e-05 2.50141e-14 1.88712e-14)
(1.99058e-05 2.38411e-14 1.81215e-14)
(1.99058e-05 2.27279e-14 1.74029e-14)
(1.99058e-05 2.1679e-14 1.67245e-14)
(1.99058e-05 2.06975e-14 1.6083e-14)
(1.99058e-05 1.97866e-14 1.54669e-14)
(1.99058e-05 1.89455e-14 1.48729e-14)
(1.99058e-05 1.81713e-14 1.42791e-14)
(1.99058e-05 1.74541e-14 1.36749e-14)
(1.99058e-05 1.67753e-14 1.30705e-14)
(1.99058e-05 1.61064e-14 1.24431e-14)
(1.99058e-05 1.54145e-14 1.1752e-14)
(1.99058e-05 1.4659e-14 1.09965e-14)
(1.99058e-05 1.37818e-14 1.02431e-14)
(1.99058e-05 1.27036e-14 9.23127e-15)
(1.99058e-05 1.13772e-14 7.77165e-15)
(1.99058e-05 9.85941e-15 7.39781e-15)
(1.99058e-05 8.2366e-15 6.75363e-15)
(1.99058e-05 6.57514e-15 7.16626e-16)
(1.99058e-05 5.32396e-15 1.11648e-14)
(1.99058e-05 4.61138e-15 1.89782e-14)
(1.99058e-05 4.89787e-15 -1.86717e-14)
(1.99058e-05 9.63837e-15 1.23515e-13)
(1.99058e-05 7.53458e-15 -2.23111e-14)
(1.99058e-05 1.23015e-14 1.9608e-13)
(1.99058e-05 8.52847e-15 3.82316e-13)
(1.99057e-05 -1.13924e-11 3.59191e-10)
(1.99055e-05 -2.65524e-12 -1.26439e-10)
(1.99056e-05 -2.23843e-12 7.74546e-11)
(1.99056e-05 1.7082e-12 -1.91529e-11)
(1.99057e-05 2.49192e-12 4.47446e-12)
(1.99057e-05 2.15418e-12 1.12479e-11)
(1.99058e-05 1.55779e-12 4.28446e-13)
(1.99058e-05 8.88106e-13 3.00507e-12)
(1.99058e-05 3.84588e-13 2.08473e-12)
(1.99058e-05 -1.41679e-14 3.54299e-13)
(1.99058e-05 -2.82581e-13 1.31945e-13)
(1.99058e-05 -4.39141e-13 -1.04376e-13)
(1.99058e-05 -5.14271e-13 -3.58837e-13)
(1.99058e-05 -5.39227e-13 -4.37367e-13)
(1.99058e-05 -5.28883e-13 -4.37713e-13)
(1.99058e-05 -4.97142e-13 -4.19849e-13)
(1.99058e-05 -4.54081e-13 -3.83077e-13)
(1.99058e-05 -4.05781e-13 -3.34102e-13)
(1.99058e-05 -3.56526e-13 -2.8274e-13)
(1.99058e-05 -3.09108e-13 -2.33338e-13)
(1.99058e-05 -2.64908e-13 -1.87629e-13)
(1.99058e-05 -2.24495e-13 -1.46633e-13)
(1.99058e-05 -1.88333e-13 -1.10751e-13)
(1.99058e-05 -1.56092e-13 -7.96717e-14)
(1.99058e-05 -1.28063e-13 -5.36732e-14)
(1.99058e-05 -1.03846e-13 -3.21208e-14)
(1.99058e-05 -8.30913e-14 -1.45473e-14)
(1.99058e-05 -6.53879e-14 -4.57836e-16)
(1.99058e-05 -5.03534e-14 1.07124e-14)
(1.99058e-05 -3.76583e-14 1.95198e-14)
(1.99058e-05 -2.69769e-14 2.63539e-14)
(1.99058e-05 -1.80463e-14 3.1596e-14)
(1.99058e-05 -1.06217e-14 3.5595e-14)
(1.99058e-05 -4.48147e-15 3.85948e-14)
(1.99058e-05 5.75241e-16 4.079e-14)
(1.99058e-05 4.72033e-15 4.23701e-14)
(1.99058e-05 8.11569e-15 4.347e-14)
(1.99058e-05 1.08941e-14 4.41943e-14)
(1.99058e-05 1.31675e-14 4.4626e-14)
(1.99058e-05 1.50202e-14 4.48254e-14)
(1.99058e-05 1.65233e-14 4.48324e-14)
(1.99058e-05 1.77374e-14 4.46943e-14)
(1.99058e-05 1.87151e-14 4.44344e-14)
(1.99058e-05 1.94974e-14 4.4076e-14)
(1.99058e-05 2.012e-14 4.36332e-14)
(1.99058e-05 2.06092e-14 4.31208e-14)
(1.99058e-05 2.0991e-14 4.25428e-14)
(1.99058e-05 2.12794e-14 4.19172e-14)
(1.99058e-05 2.14875e-14 4.12446e-14)
(1.99058e-05 2.16252e-14 4.05339e-14)
(1.99058e-05 2.17024e-14 3.97829e-14)
(1.99058e-05 2.17231e-14 3.90023e-14)
(1.99058e-05 2.16947e-14 3.81927e-14)
(1.99058e-05 2.16203e-14 3.73598e-14)
(1.99058e-05 2.15044e-14 3.6501e-14)
(1.99058e-05 2.13485e-14 3.56268e-14)
(1.99058e-05 2.11594e-14 3.47344e-14)
(1.99058e-05 2.09393e-14 3.38333e-14)
(1.99058e-05 2.06915e-14 3.29233e-14)
(1.99058e-05 2.04134e-14 3.20089e-14)
(1.99058e-05 2.01068e-14 3.10845e-14)
(1.99058e-05 1.97695e-14 3.01565e-14)
(1.99058e-05 1.94089e-14 2.92282e-14)
(1.99058e-05 1.90332e-14 2.83073e-14)
(1.99058e-05 1.86425e-14 2.73861e-14)
(1.99058e-05 1.82334e-14 2.6462e-14)
(1.99058e-05 1.78128e-14 2.55282e-14)
(1.99058e-05 1.73809e-14 2.4605e-14)
(1.99058e-05 1.69373e-14 2.36927e-14)
(1.99058e-05 1.648e-14 2.27941e-14)
(1.99058e-05 1.60139e-14 2.19052e-14)
(1.99058e-05 1.55445e-14 2.1039e-14)
(1.99058e-05 1.50809e-14 2.01959e-14)
(1.99058e-05 1.46272e-14 1.93861e-14)
(1.99058e-05 1.41947e-14 1.86078e-14)
(1.99058e-05 1.37926e-14 1.78727e-14)
(1.99058e-05 1.34261e-14 1.71782e-14)
(1.99058e-05 1.30935e-14 1.65227e-14)
(1.99058e-05 1.27983e-14 1.58909e-14)
(1.99058e-05 1.25417e-14 1.52887e-14)
(1.99058e-05 1.23247e-14 1.4698e-14)
(1.99058e-05 1.21493e-14 1.40748e-14)
(1.99058e-05 1.20048e-14 1.33906e-14)
(1.99058e-05 1.18531e-14 1.27441e-14)
(1.99058e-05 1.16876e-14 1.212e-14)
(1.99058e-05 1.14886e-14 1.1452e-14)
(1.99058e-05 1.11933e-14 1.07489e-14)
(1.99058e-05 1.07012e-14 1.00728e-14)
(1.99058e-05 9.87927e-15 9.11441e-15)
(1.99058e-05 8.59264e-15 7.64196e-15)
(1.99058e-05 6.59577e-15 7.23691e-15)
(1.99058e-05 3.51936e-15 6.56809e-15)
(1.99058e-05 -7.70759e-16 5.58056e-16)
(1.99058e-05 -7.04826e-15 1.08982e-14)
(1.99058e-05 -1.47519e-14 1.84814e-14)
(1.99058e-05 -2.39898e-14 -1.89941e-14)
(1.99058e-05 -3.77485e-14 1.22591e-13)
(1.99058e-05 -4.24244e-14 -2.1941e-14)
(1.99058e-05 -5.39247e-14 1.93277e-13)
(1.99058e-05 -4.4479e-14 3.84059e-13)
(1.92015e-05 -3.95561e-11 3.54049e-10)
(1.92013e-05 -8.42153e-12 -1.22085e-10)
(1.92015e-05 -5.47667e-12 7.39704e-11)
(1.92014e-05 2.9379e-12 -1.9956e-11)
(1.92015e-05 3.61748e-12 4.96988e-12)
(1.92016e-05 3.46873e-12 1.14633e-11)
(1.92016e-05 2.53132e-12 3.23053e-13)
(1.92016e-05 1.26036e-12 2.88297e-12)
(1.92016e-05 5.48998e-13 2.10198e-12)
(1.92016e-05 8.17719e-15 3.86319e-13)
(1.92016e-05 -3.65288e-13 1.21429e-13)
(1.92016e-05 -5.63198e-13 -9.79644e-14)
(1.92016e-05 -6.43497e-13 -3.515e-13)
(1.92016e-05 -6.68115e-13 -4.33554e-13)
(1.92016e-05 -6.52693e-13 -4.3385e-13)
(1.92016e-05 -6.14794e-13 -4.15424e-13)
(1.92016e-05 -5.66281e-13 -3.79526e-13)
(1.92016e-05 -5.13941e-13 -3.31952e-13)
(1.92016e-05 -4.61613e-13 -2.81918e-13)
(1.92016e-05 -4.11452e-13 -2.33632e-13)
(1.92016e-05 -3.64553e-13 -1.88304e-13)
(1.92016e-05 -3.21503e-13 -1.47411e-13)
(1.92016e-05 -2.8236e-13 -1.12232e-13)
(1.92016e-05 -2.4633e-13 -8.19439e-14)
(1.92016e-05 -2.14927e-13 -5.62312e-14)
(1.92016e-05 -1.87237e-13 -3.49042e-14)
(1.92016e-05 -1.63063e-13 -1.75027e-14)
(1.92016e-05 -1.42045e-13 -3.58445e-15)
(1.92016e-05 -1.23882e-13 7.47748e-15)
(1.92016e-05 -1.08303e-13 1.62571e-14)
(1.92016e-05 -9.5018e-14 2.31336e-14)
(1.92016e-05 -8.37573e-14 2.84246e-14)
(1.92016e-05 -7.42435e-14 3.24741e-14)
(1.92016e-05 -6.61908e-14 3.55401e-14)
(1.92016e-05 -5.93556e-14 3.78083e-14)
(1.92016e-05 -5.35241e-14 3.94305e-14)
(1.92016e-05 -4.8514e-14 4.05699e-14)
(1.92016e-05 -4.41619e-14 4.13395e-14)
(1.92016e-05 -4.03497e-14 4.18329e-14)
(1.92016e-05 -3.69855e-14 4.20937e-14)
(1.92016e-05 -3.39944e-14 4.21683e-14)
(1.92016e-05 -3.1305e-14 4.20908e-14)
(1.92016e-05 -2.88603e-14 4.18913e-14)
(1.92016e-05 -2.66116e-14 4.15953e-14)
(1.92016e-05 -2.45248e-14 4.12248e-14)
(1.92016e-05 -2.25688e-14 4.0785e-14)
(1.92016e-05 -2.07225e-14 4.02911e-14)
(1.92016e-05 -1.89769e-14 3.9744e-14)
(1.92016e-05 -1.73228e-14 3.91484e-14)
(1.92016e-05 -1.57503e-14 3.85116e-14)
(1.92016e-05 -1.42547e-14 3.78423e-14)
(1.92016e-05 -1.2834e-14 3.7139e-14)
(1.92016e-05 -1.14848e-14 3.64079e-14)
(1.92016e-05 -1.02021e-14 3.56482e-14)
(1.92016e-05 -8.98469e-15 3.4865e-14)
(1.92016e-05 -7.82972e-15 3.40587e-14)
(1.92016e-05 -6.73665e-15 3.32367e-14)
(1.92016e-05 -5.70246e-15 3.24083e-14)
(1.92016e-05 -4.73097e-15 3.15688e-14)
(1.92016e-05 -3.8211e-15 3.07111e-14)
(1.92016e-05 -2.9695e-15 2.98518e-14)
(1.92016e-05 -2.17266e-15 2.89911e-14)