# Region type : patch outlet
# Faces       : 37
# Area        : 3.553480e-11
# Scale factor: 1.000000e+00
# Time        	sum(phi)
0             
50            	5.199326e-16
100           	5.199269e-16
150           	5.199263e-16
200           	5.199263e-16
250           	5.199263e-16
300           	5.199263e-16
