/*--------------------------------*- C++ -*----------------------------------*\
| =========                 |                                                 |
| \\      /  F ield         | OpenFOAM: The Open Source CFD Toolbox           |
|  \\    /   O peration     | Version:  2412                                  |
|   \\  /    A nd           | Website:  www.openfoam.com                      |
|    \\/     M anipulation  |                                                 |
\*---------------------------------------------------------------------------*/
FoamFile
{
    version     2.0;
    format      ascii;
    arch        "LSB;label=32;scalar=64";
    class       volScalarField;
    location    "100";
    object      p;
}
// * * * * * * * * * * * * * * * * * * * * * * * * * * * * * * * * * * * * * //

dimensions      [0 2 -2 0 0 0 0];

internalField   nonuniform List<scalar> 
116500
(
0.000997444
0.000987469
0.000977484
0.000967491
0.000957495
0.000947496
0.000937497
0.000927498
0.000917498
0.000907498
0.000897498
0.000887498
0.000877498
0.000867498
0.000857498
0.000847498
0.000837497
0.000827497
0.000817497
0.000807497
0.000797497
0.000787497
0.000777497
0.000767496
0.000757496
0.000747496
0.000737496
0.000727496
0.000717496
0.000707496
0.000697496
0.000687495
0.000677495
0.000667495
0.000657495
0.000647495
0.000637495
0.000627495
0.000617494
0.000607494
0.000597494
0.000587494
0.000577494
0.000567494
0.000557494
0.000547494
0.000537493
0.000527493
0.000517493
0.000507493
0.000497493
0.000487493
0.000477493
0.000467492
0.000457492
0.000447492
0.000437492
0.000427492
0.000417492
0.000407492
0.000397492
0.000387491
0.000377491
0.000367491
0.000357491
0.000347491
0.000337491
0.000327491
0.00031749
0.00030749
0.00029749
0.00028749
0.00027749
0.00026749
0.00025749
0.00024749
0.000237489
0.000227489
0.000217489
0.000207489
0.000197489
0.000187489
0.000177489
0.000167488
0.000157488
0.000147488
0.000137488
0.000127488
0.000117488
0.000107488
9.74877e-05
8.74878e-05
7.74879e-05
6.74882e-05
5.74889e-05
4.74902e-05
3.74927e-05
2.74976e-05
1.75079e-05
7.53209e-06
0.000997447
0.000987469
0.000977483
0.000967491
0.000957494
0.000947496
0.000937497
0.000927497
0.000917498
0.000907498
0.000897498
0.000887497
0.000877497
0.000867497
0.000857497
0.000847497
0.000837497
0.000827497
0.000817497
0.000807496
0.000797496
0.000787496
0.000777496
0.000767496
0.000757496
0.000747496
0.000737496
0.000727495
0.000717495
0.000707495
0.000697495
0.000687495
0.000677495
0.000667495
0.000657494
0.000647494
0.000637494
0.000627494
0.000617494
0.000607494
0.000597494
0.000587494
0.000577493
0.000567493
0.000557493
0.000547493
0.000537493
0.000527493
0.000517493
0.000507492
0.000497492
0.000487492
0.000477492
0.000467492
0.000457492
0.000447492
0.000437492
0.000427491
0.000417491
0.000407491
0.000397491
0.000387491
0.000377491
0.000367491
0.00035749
0.00034749
0.00033749
0.00032749
0.00031749
0.00030749
0.00029749
0.00028749
0.000277489
0.000267489
0.000257489
0.000247489
0.000237489
0.000227489
0.000217489
0.000207488
0.000197488
0.000187488
0.000177488
0.000167488
0.000157488
0.000147488
0.000137488
0.000127487
0.000117487
0.000107487
9.74872e-05
8.74872e-05
7.74873e-05
6.74876e-05
5.74883e-05
4.74896e-05
3.74921e-05
2.74971e-05
1.75072e-05
7.53023e-06
0.000997433
0.000987466
0.000977482
0.000967489
0.000957492
0.000947493
0.000937494
0.000927494
0.000917494
0.000907494
0.000897494
0.000887494
0.000877494
0.000867494
0.000857494
0.000847494
0.000837493
0.000827493
0.000817493
0.000807493
0.000797493
0.000787493
0.000777493
0.000767493
0.000757492
0.000747492
0.000737492
0.000727492
0.000717492
0.000707492
0.000697492
0.000687491
0.000677491
0.000667491
0.000657491
0.000647491
0.000637491
0.000627491
0.000617491
0.00060749
0.00059749
0.00058749
0.00057749
0.00056749
0.00055749
0.00054749
0.000537489
0.000527489
0.000517489
0.000507489
0.000497489
0.000487489
0.000477489
0.000467489
0.000457488
0.000447488
0.000437488
0.000427488
0.000417488
0.000407488
0.000397488
0.000387487
0.000377487
0.000367487
0.000357487
0.000347487
0.000337487
0.000327487
0.000317487
0.000307486
0.000297486
0.000287486
0.000277486
0.000267486
0.000257486
0.000247486
0.000237485
0.000227485
0.000217485
0.000207485
0.000197485
0.000187485
0.000177485
0.000167485
0.000157484
0.000147484
0.000137484
0.000127484
0.000117484
0.000107484
9.74838e-05
8.74838e-05
7.74839e-05
6.74841e-05
5.74846e-05
4.74856e-05
3.74876e-05
2.7492e-05
1.75019e-05
7.53066e-06
0.000997443
0.000987486
0.000977498
0.000967503
0.000957505
0.000947507
0.000937507
0.000927508
0.000917508
0.000907508
0.000897508
0.000887508
0.000877508
0.000867507
0.000857507
0.000847507
0.000837507
0.000827507
0.000817507
0.000807507
0.000797507
0.000787506
0.000777506
0.000767506
0.000757506
0.000747506
0.000737506
0.000727506
0.000717505
0.000707505
0.000697505
0.000687505
0.000677505
0.000667505
0.000657505
0.000647505
0.000637504
0.000627504
0.000617504
0.000607504
0.000597504
0.000587504
0.000577504
0.000567503
0.000557503
0.000547503
0.000537503
0.000527503
0.000517503
0.000507503
0.000497503
0.000487502
0.000477502
0.000467502
0.000457502
0.000447502
0.000437502
0.000427502
0.000417501
0.000407501
0.000397501
0.000387501
0.000377501
0.000367501
0.000357501
0.000347501
0.0003375
0.0003275
0.0003175
0.0003075
0.0002975
0.0002875
0.0002775
0.000267499
0.000257499
0.000247499
0.000237499
0.000227499
0.000217499
0.000207499
0.000197498
0.000187498
0.000177498
0.000167498
0.000157498
0.000147498
0.000137498
0.000127498
0.000117497
0.000107497
9.74973e-05
8.74973e-05
7.74974e-05
6.74976e-05
5.74981e-05
4.74991e-05
3.75011e-05
2.75049e-05
1.75123e-05
7.53782e-06
0.000997419
0.000987478
0.000977488
0.000967491
0.000957494
0.000947495
0.000937495
0.000927496
0.000917496
0.000907496
0.000897496
0.000887496
0.000877496
0.000867496
0.000857495
0.000847495
0.000837495
0.000827495
0.000817495
0.000807495
0.000797495
0.000787494
0.000777494
0.000767494
0.000757494
0.000747494
0.000737494
0.000727494
0.000717494
0.000707493
0.000697493
0.000687493
0.000677493
0.000667493
0.000657493
0.000647493
0.000637492
0.000627492
0.000617492
0.000607492
0.000597492
0.000587492
0.000577492
0.000567492
0.000557491
0.000547491
0.000537491
0.000527491
0.000517491
0.000507491
0.000497491
0.00048749
0.00047749
0.00046749
0.00045749
0.00044749
0.00043749
0.00042749
0.00041749
0.000407489
0.000397489
0.000387489
0.000377489
0.000367489
0.000357489
0.000347489
0.000337488
0.000327488
0.000317488
0.000307488
0.000297488
0.000287488
0.000277488
0.000267488
0.000257487
0.000247487
0.000237487
0.000227487
0.000217487
0.000207487
0.000197487
0.000187486
0.000177486
0.000167486
0.000157486
0.000147486
0.000137486
0.000127486
0.000117486
0.000107485
9.74854e-05
8.74854e-05
7.74855e-05
6.74857e-05
5.74862e-05
4.74871e-05
3.74887e-05
2.74918e-05
1.7497e-05
7.52546e-06
0.000997419
0.000987479
0.000977488
0.000967492
0.000957493
0.000947495
0.000937495
0.000927496
0.000917496
0.000907496
0.000897496
0.000887496
0.000877495
0.000867495
0.000857495
0.000847495
0.000837495
0.000827495
0.000817495
0.000807495
0.000797494
0.000787494
0.000777494
0.000767494
0.000757494
0.000747494
0.000737494
0.000727493
0.000717493
0.000707493
0.000697493
0.000687493
0.000677493
0.000667493
0.000657493
0.000647492
0.000637492
0.000627492
0.000617492
0.000607492
0.000597492
0.000587492
0.000577491
0.000567491
0.000557491
0.000547491
0.000537491
0.000527491
0.000517491
0.000507491
0.00049749
0.00048749
0.00047749
0.00046749
0.00045749
0.00044749
0.00043749
0.000427489
0.000417489
0.000407489
0.000397489
0.000387489
0.000377489
0.000367489
0.000357489
0.000347488
0.000337488
0.000327488
0.000317488
0.000307488
0.000297488
0.000287488
0.000277487
0.000267487
0.000257487
0.000247487
0.000237487
0.000227487
0.000217487
0.000207487
0.000197486
0.000187486
0.000177486
0.000167486
0.000157486
0.000147486
0.000137486
0.000127485
0.000117485
0.000107485
9.74852e-05
8.74852e-05
7.74853e-05
6.74855e-05
5.7486e-05
4.74869e-05
3.74885e-05
2.74912e-05
1.74959e-05
7.52391e-06
0.000997431
0.000987484
0.000977491
0.000967493
0.000957495
0.000947496
0.000937496
0.000927497
0.000917497
0.000907497
0.000897497
0.000887497
0.000877497
0.000867497
0.000857497
0.000847496
0.000837496
0.000827496
0.000817496
0.000807496
0.000797496
0.000787496
0.000777496
0.000767495
0.000757495
0.000747495
0.000737495
0.000727495
0.000717495
0.000707495
0.000697494
0.000687494
0.000677494
0.000667494
0.000657494
0.000647494
0.000637494
0.000627494
0.000617493
0.000607493
0.000597493
0.000587493
0.000577493
0.000567493
0.000557493
0.000547493
0.000537492
0.000527492
0.000517492
0.000507492
0.000497492
0.000487492
0.000477492
0.000467491
0.000457491
0.000447491
0.000437491
0.000427491
0.000417491
0.000407491
0.00039749
0.00038749
0.00037749
0.00036749
0.00035749
0.00034749
0.00033749
0.00032749
0.000317489
0.000307489
0.000297489
0.000287489
0.000277489
0.000267489
0.000257489
0.000247488
0.000237488
0.000227488
0.000217488
0.000207488
0.000197488
0.000187488
0.000177488
0.000167487
0.000157487
0.000147487
0.000137487
0.000127487
0.000117487
0.000107487
9.74867e-05
8.74867e-05
7.74868e-05
6.74871e-05
5.74876e-05
4.74886e-05
3.74902e-05
2.74926e-05
1.74951e-05
7.51466e-06
0.000997428
0.000987483
0.00097749
0.000967493
0.000957494
0.000947495
0.000937496
0.000927497
0.000917497
0.000907497
0.000897497
0.000887497
0.000877497
0.000867496
0.000857496
0.000847496
0.000837496
0.000827496
0.000817496
0.000807496
0.000797495
0.000787495
0.000777495
0.000767495
0.000757495
0.000747495
0.000737495
0.000727495
0.000717494
0.000707494
0.000697494
0.000687494
0.000677494
0.000667494
0.000657494
0.000647493
0.000637493
0.000627493
0.000617493
0.000607493
0.000597493
0.000587493
0.000577493
0.000567492
0.000557492
0.000547492
0.000537492
0.000527492
0.000517492
0.000507492
0.000497491
0.000487491
0.000477491
0.000467491
0.000457491
0.000447491
0.000437491
0.000427491
0.00041749
0.00040749
0.00039749
0.00038749
0.00037749
0.00036749
0.00035749
0.000347489
0.000337489
0.000327489
0.000317489
0.000307489
0.000297489
0.000287489
0.000277489
0.000267488
0.000257488
0.000247488
0.000237488
0.000227488
0.000217488
0.000207488
0.000197487
0.000187487
0.000177487
0.000167487
0.000157487
0.000147487
0.000137487
0.000127487
0.000117486
0.000107486
9.74863e-05
8.74863e-05
7.74864e-05
6.74867e-05
5.74872e-05
4.74881e-05
3.74897e-05
2.74923e-05
1.74953e-05
7.51643e-06
0.000997418
0.000987478
0.000977488
0.000967491
0.000957493
0.000947494
0.000937495
0.000927495
0.000917495
0.000907495
0.000897495
0.000887495
0.000877495
0.000867495
0.000857495
0.000847495
0.000837495
0.000827495
0.000817494
0.000807494
0.000797494
0.000787494
0.000777494
0.000767494
0.000757494
0.000747494
0.000737493
0.000727493
0.000717493
0.000707493
0.000697493
0.000687493
0.000677493
0.000667492
0.000657492
0.000647492
0.000637492
0.000627492
0.000617492
0.000607492
0.000597492
0.000587491
0.000577491
0.000567491
0.000557491
0.000547491
0.000537491
0.000527491
0.00051749
0.00050749
0.00049749
0.00048749
0.00047749
0.00046749
0.00045749
0.00044749
0.000437489
0.000427489
0.000417489
0.000407489
0.000397489
0.000387489
0.000377489
0.000367488
0.000357488
0.000347488
0.000337488
0.000327488
0.000317488
0.000307488
0.000297488
0.000287487
0.000277487
0.000267487
0.000257487
0.000247487
0.000237487
0.000227487
0.000217486
0.000207486
0.000197486
0.000187486
0.000177486
0.000167486
0.000157486
0.000147485
0.000137485
0.000127485
0.000117485
0.000107485
9.7485e-05
8.7485e-05
7.7485e-05
6.74853e-05
5.74857e-05
4.74866e-05
3.74882e-05
2.74911e-05
1.7496e-05
7.52476e-06
0.000997425
0.00098748
0.00097749
0.000967494
0.000957496
0.000947498
0.000937498
0.000927499
0.000917499
0.000907499
0.000897499
0.000887499
0.000877498
0.000867498
0.000857498
0.000847498
0.000837498
0.000827498
0.000817498
0.000807498
0.000797497
0.000787497
0.000777497
0.000767497
0.000757497
0.000747497
0.000737497
0.000727496
0.000717496
0.000707496
0.000697496
0.000687496
0.000677496
0.000667496
0.000657496
0.000647495
0.000637495
0.000627495
0.000617495
0.000607495
0.000597495
0.000587495
0.000577495
0.000567494
0.000557494
0.000547494
0.000537494
0.000527494
0.000517494
0.000507494
0.000497493
0.000487493
0.000477493
0.000467493
0.000457493
0.000447493
0.000437493
0.000427493
0.000417492
0.000407492
0.000397492
0.000387492
0.000377492
0.000367492
0.000357492
0.000347491
0.000337491
0.000327491
0.000317491
0.000307491
0.000297491
0.000287491
0.00027749
0.00026749
0.00025749
0.00024749
0.00023749
0.00022749
0.00021749
0.00020749
0.000197489
0.000187489
0.000177489
0.000167489
0.000157489
0.000147489
0.000137489
0.000127489
0.000117488
0.000107488
9.74882e-05
8.74882e-05
7.74883e-05
6.74885e-05
5.7489e-05
4.749e-05
3.74917e-05
2.7495e-05
1.75008e-05
7.52785e-06
0.000997434
0.000987468
0.000977482
0.000967488
0.000957491
0.000947492
0.000937493
0.000927493
0.000917493
0.000907494
0.000897493
0.000887493
0.000877493
0.000867493
0.000857493
0.000847493
0.000837493
0.000827493
0.000817493
0.000807492
0.000797492
0.000787492
0.000777492
0.000767492
0.000757492
0.000747492
0.000737491
0.000727491
0.000717491
0.000707491
0.000697491
0.000687491
0.000677491
0.000667491
0.00065749
0.00064749
0.00063749
0.00062749
0.00061749
0.00060749
0.00059749
0.000587489
0.000577489
0.000567489
0.000557489
0.000547489
0.000537489
0.000527489
0.000517489
0.000507488
0.000497488
0.000487488
0.000477488
0.000467488
0.000457488
0.000447488
0.000437487
0.000427487
0.000417487
0.000407487
0.000397487
0.000387487
0.000377487
0.000367487
0.000357486
0.000347486
0.000337486
0.000327486
0.000317486
0.000307486
0.000297486
0.000287485
0.000277485
0.000267485
0.000257485
0.000247485
0.000237485
0.000227485
0.000217484
0.000207484
0.000197484
0.000187484
0.000177484
0.000167484
0.000157484
0.000147484
0.000137483
0.000127483
0.000117483
0.000107483
9.7483e-05
8.7483e-05
7.74831e-05
6.74833e-05
5.74839e-05
4.74849e-05
3.74868e-05
2.7491e-05
1.74997e-05
7.52561e-06
0.000997435
0.000987464
0.000977482
0.00096749
0.000957493
0.000947495
0.000937495
0.000927496
0.000917496
0.000907496
0.000897496
0.000887496
0.000877496
0.000867495
0.000857495
0.000847495
0.000837495
0.000827495
0.000817495
0.000807495
0.000797494
0.000787494
0.000777494
0.000767494
0.000757494
0.000747494
0.000737494
0.000727494
0.000717493
0.000707493
0.000697493
0.000687493
0.000677493
0.000667493
0.000657493
0.000647492
0.000637492
0.000627492
0.000617492
0.000607492
0.000597492
0.000587492
0.000577492
0.000567491
0.000557491
0.000547491
0.000537491
0.000527491
0.000517491
0.000507491
0.00049749
0.00048749
0.00047749
0.00046749
0.00045749
0.00044749
0.00043749
0.00042749
0.000417489
0.000407489
0.000397489
0.000387489
0.000377489
0.000367489
0.000357489
0.000347488
0.000337488
0.000327488
0.000317488
0.000307488
0.000297488
0.000287488
0.000277488
0.000267487
0.000257487
0.000247487
0.000237487
0.000227487
0.000217487
0.000207487
0.000197486
0.000187486
0.000177486
0.000167486
0.000157486
0.000147486
0.000137486
0.000127486
0.000117485
0.000107485
9.74852e-05
8.74852e-05
7.74853e-05
6.74855e-05
5.7486e-05
4.74871e-05
3.74892e-05
2.7494e-05
1.75055e-05
7.53603e-06
0.000997439
0.000987468
0.000977483
0.00096749
0.000957493
0.000947494
0.000937495
0.000927495
0.000917496
0.000907496
0.000897496
0.000887495
0.000877495
0.000867495
0.000857495
0.000847495
0.000837495
0.000827495
0.000817495
0.000807495
0.000797494
0.000787494
0.000777494
0.000767494
0.000757494
0.000747494
0.000737494
0.000727493
0.000717493
0.000707493
0.000697493
0.000687493
0.000677493
0.000667493
0.000657493
0.000647492
0.000637492
0.000627492
0.000617492
0.000607492
0.000597492
0.000587492
0.000577491
0.000567491
0.000557491
0.000547491
0.000537491
0.000527491
0.000517491
0.000507491
0.00049749
0.00048749
0.00047749
0.00046749
0.00045749
0.00044749
0.00043749
0.000427489
0.000417489
0.000407489
0.000397489
0.000387489
0.000377489
0.000367489
0.000357489
0.000347488
0.000337488
0.000327488
0.000317488
0.000307488
0.000297488
0.000287488
0.000277487
0.000267487
0.000257487
0.000247487
0.000237487
0.000227487
0.000217487
0.000207486
0.000197486
0.000187486
0.000177486
0.000167486
0.000157486
0.000147486
0.000137486
0.000127485
0.000117485
0.000107485
9.74853e-05
8.74853e-05
7.74853e-05
6.74856e-05
5.74861e-05
4.7487e-05
3.7489e-05
2.74932e-05
1.7503e-05
7.52956e-06
0.000997434
0.000987484
0.000977496
0.0009675
0.000957503
0.000947504
0.000937504
0.000927505
0.000917505
0.000907505
0.000897505
0.000887505
0.000877505
0.000867504
0.000857504
0.000847504
0.000837504
0.000827504
0.000817504
0.000807504
0.000797503
0.000787503
0.000777503
0.000767503
0.000757503
0.000747503
0.000737503
0.000727503
0.000717502
0.000707502
0.000697502
0.000687502
0.000677502
0.000667502
0.000657502
0.000647501
0.000637501
0.000627501
0.000617501
0.000607501
0.000597501
0.000587501
0.000577501
0.0005675
0.0005575
0.0005475
0.0005375
0.0005275
0.0005175
0.0005075
0.0004975
0.000487499
0.000477499
0.000467499
0.000457499
0.000447499
0.000437499
0.000427499
0.000417498
0.000407498
0.000397498
0.000387498
0.000377498
0.000367498
0.000357498
0.000347497
0.000337497
0.000327497
0.000317497
0.000307497
0.000297497
0.000287497
0.000277497
0.000267496
0.000257496
0.000247496
0.000237496
0.000227496
0.000217496
0.000207496
0.000197495
0.000187495
0.000177495
0.000167495
0.000157495
0.000147495
0.000137495
0.000127495
0.000117494
0.000107494
9.74943e-05
8.74943e-05
7.74944e-05
6.74946e-05
5.74951e-05
4.74959e-05
3.74976e-05
2.7501e-05
1.75078e-05
7.53633e-06
0.000997426
0.000987496
0.0009775
0.000967501
0.000957502
0.000947503
0.000937503
0.000927504
0.000917504
0.000907504
0.000897504
0.000887504
0.000877503
0.000867503
0.000857503
0.000847503
0.000837503
0.000827503
0.000817503
0.000807503
0.000797502
0.000787502
0.000777502
0.000767502
0.000757502
0.000747502
0.000737502
0.000727502
0.000717501
0.000707501
0.000697501
0.000687501
0.000677501
0.000667501
0.000657501
0.0006475
0.0006375
0.0006275
0.0006175
0.0006075
0.0005975
0.0005875
0.0005775
0.000567499
0.000557499
0.000547499
0.000537499
0.000527499
0.000517499
0.000507499
0.000497498
0.000487498
0.000477498
0.000467498
0.000457498
0.000447498
0.000437498
0.000427498
0.000417497
0.000407497
0.000397497
0.000387497
0.000377497
0.000367497
0.000357497
0.000347496
0.000337496
0.000327496
0.000317496
0.000307496
0.000297496
0.000287496
0.000277496
0.000267495
0.000257495
0.000247495
0.000237495
0.000227495
0.000217495
0.000207495
0.000197494
0.000187494
0.000177494
0.000167494
0.000157494
0.000147494
0.000137494
0.000127494
0.000117493
0.000107493
9.74934e-05
8.74934e-05
7.74934e-05
6.74936e-05
5.7494e-05
4.74947e-05
3.74959e-05
2.74973e-05
1.74981e-05
7.51946e-06
0.000995033
0.000985017
0.000975002
0.000965003
0.000955004
0.000945004
0.000935005
0.000925005
0.000915005
0.000905005
0.000895005
0.000885005
0.000875005
0.000865004
0.000855004
0.000845004
0.000835004
0.000825004
0.000815004
0.000805004
0.000795004
0.000785003
0.000775003
0.000765003
0.000755003
0.000745003
0.000735003
0.000725003
0.000715002
0.000705002
0.000695002
0.000685002
0.000675002
0.000665002
0.000655002
0.000645002
0.000635001
0.000625001
0.000615001
0.000605001
0.000595001
0.000585001
0.000575001
0.000565001
0.000555
0.000545
0.000535
0.000525
0.000515
0.000505
0.000495
0.000484999
0.000474999
0.000464999
0.000454999
0.000444999
0.000434999
0.000424999
0.000414999
0.000404998
0.000394998
0.000384998
0.000374998
0.000364998
0.000354998
0.000344998
0.000334997
0.000324997
0.000314997
0.000304997
0.000294997
0.000284997
0.000274997
0.000264996
0.000254996
0.000244996
0.000234996
0.000224996
0.000214996
0.000204996
0.000194996
0.000184995
0.000174995
0.000164995
0.000154995
0.000144995
0.000134995
0.000124995
0.000114995
0.000104995
9.49945e-05
8.49945e-05
7.49946e-05
6.49947e-05
5.4995e-05
4.49955e-05
3.49961e-05
2.49964e-05
1.49837e-05
4.95864e-06
0.000995029
0.000985015
0.000975002
0.000965003
0.000955004
0.000945004
0.000935005
0.000925005
0.000915005
0.000905005
0.000895005
0.000885005
0.000875005
0.000865004
0.000855004
0.000845004
0.000835004
0.000825004
0.000815004
0.000805004
0.000795004
0.000785003
0.000775003
0.000765003
0.000755003
0.000745003
0.000735003
0.000725003
0.000715002
0.000705002
0.000695002
0.000685002
0.000675002
0.000665002
0.000655002
0.000645002
0.000635001
0.000625001
0.000615001
0.000605001
0.000595001
0.000585001
0.000575001
0.000565001
0.000555
0.000545
0.000535
0.000525
0.000515
0.000505
0.000495
0.000484999
0.000474999
0.000464999
0.000454999
0.000444999
0.000434999
0.000424999
0.000414999
0.000404998
0.000394998
0.000384998
0.000374998
0.000364998
0.000354998
0.000344998
0.000334997
0.000324997
0.000314997
0.000304997
0.000294997
0.000284997
0.000274997
0.000264996
0.000254996
0.000244996
0.000234996
0.000224996
0.000214996
0.000204996
0.000194996
0.000184995
0.000174995
0.000164995
0.000154995
0.000144995
0.000134995
0.000124995
0.000114995
0.000104995
9.49945e-05
8.49945e-05
7.49945e-05
6.49947e-05
5.4995e-05
4.49954e-05
3.49961e-05
2.49967e-05
1.49864e-05
4.96382e-06
0.000995028
0.000985015
0.000975002
0.000965004
0.000955004
0.000945004
0.000935005
0.000925005
0.000915005
0.000905005
0.000895005
0.000885005
0.000875005
0.000865004
0.000855004
0.000845004
0.000835004
0.000825004
0.000815004
0.000805004
0.000795004
0.000785003
0.000775003
0.000765003
0.000755003
0.000745003
0.000735003
0.000725003
0.000715002
0.000705002
0.000695002
0.000685002
0.000675002
0.000665002
0.000655002
0.000645002
0.000635001
0.000625001
0.000615001
0.000605001
0.000595001
0.000585001
0.000575001
0.000565001
0.000555
0.000545
0.000535
0.000525
0.000515
0.000505
0.000495
0.000484999
0.000474999
0.000464999
0.000454999
0.000444999
0.000434999
0.000424999
0.000414999
0.000404998
0.000394998
0.000384998
0.000374998
0.000364998
0.000354998
0.000344998
0.000334997
0.000324997
0.000314997
0.000304997
0.000294997
0.000284997
0.000274997
0.000264996
0.000254996
0.000244996
0.000234996
0.000224996
0.000214996
0.000204996
0.000194996
0.000184995
0.000174995
0.000164995
0.000154995
0.000144995
0.000134995
0.000124995
0.000114995
0.000104995
9.49945e-05
8.49945e-05
7.49945e-05
6.49947e-05
5.4995e-05
4.49954e-05
3.4996e-05
2.49965e-05
1.49865e-05
4.96469e-06
0.000995029
0.000985015
0.000975002
0.000965003
0.000955004
0.000945004
0.000935005
0.000925005
0.000915005
0.000905005
0.000895005
0.000885005
0.000875005
0.000865004
0.000855004
0.000845004
0.000835004
0.000825004
0.000815004
0.000805004
0.000795004
0.000785003
0.000775003
0.000765003
0.000755003
0.000745003
0.000735003
0.000725003
0.000715002
0.000705002
0.000695002
0.000685002
0.000675002
0.000665002
0.000655002
0.000645002
0.000635001
0.000625001
0.000615001
0.000605001
0.000595001
0.000585001
0.000575001
0.000565001
0.000555
0.000545
0.000535
0.000525
0.000515
0.000505
0.000495
0.000484999
0.000474999
0.000464999
0.000454999
0.000444999
0.000434999
0.000424999
0.000414999
0.000404998
0.000394998
0.000384998
0.000374998
0.000364998
0.000354998
0.000344998
0.000334997
0.000324997
0.000314997
0.000304997
0.000294997
0.000284997
0.000274997
0.000264996
0.000254996
0.000244996
0.000234996
0.000224996
0.000214996
0.000204996
0.000194996
0.000184995
0.000174995
0.000164995
0.000154995
0.000144995
0.000134995
0.000124995
0.000114995
0.000104995
9.49945e-05
8.49945e-05
7.49945e-05
6.49947e-05
5.4995e-05
4.49955e-05
3.49961e-05
2.49967e-05
1.49863e-05
4.96416e-06
0.000995028
0.000985015
0.000975002
0.000965004
0.000955004
0.000945004
0.000935005
0.000925005
0.000915005
0.000905005
0.000895005
0.000885005
0.000875005
0.000865004
0.000855004
0.000845004
0.000835004
0.000825004
0.000815004
0.000805004
0.000795004
0.000785003
0.000775003
0.000765003
0.000755003
0.000745003
0.000735003
0.000725003
0.000715002
0.000705002
0.000695002
0.000685002
0.000675002
0.000665002
0.000655002
0.000645002
0.000635001
0.000625001
0.000615001
0.000605001
0.000595001
0.000585001
0.000575001
0.000565001
0.000555
0.000545
0.000535
0.000525
0.000515
0.000505
0.000495
0.000484999
0.000474999
0.000464999
0.000454999
0.000444999
0.000434999
0.000424999
0.000414999
0.000404998
0.000394998
0.000384998
0.000374998
0.000364998
0.000354998
0.000344998
0.000334997
0.000324997
0.000314997
0.000304997
0.000294997
0.000284997
0.000274997
0.000264996
0.000254996
0.000244996
0.000234996
0.000224996
0.000214996
0.000204996
0.000194996
0.000184995
0.000174995
0.000164995
0.000154995
0.000144995
0.000134995
0.000124995
0.000114995
0.000104995
9.49945e-05
8.49945e-05
7.49945e-05
6.49947e-05
5.4995e-05
4.49954e-05
3.4996e-05
2.49965e-05
1.49865e-05
4.96469e-06
0.000995029
0.000985016
0.000975002
0.000965003
0.000955004
0.000945004
0.000935005
0.000925005
0.000915005
0.000905005
0.000895005
0.000885005
0.000875005
0.000865004
0.000855004
0.000845004
0.000835004
0.000825004
0.000815004
0.000805004
0.000795004
0.000785003
0.000775003
0.000765003
0.000755003
0.000745003
0.000735003
0.000725003
0.000715002
0.000705002
0.000695002
0.000685002
0.000675002
0.000665002
0.000655002
0.000645002
0.000635001
0.000625001
0.000615001
0.000605001
0.000595001
0.000585001
0.000575001
0.000565001
0.000555
0.000545
0.000535
0.000525
0.000515
0.000505
0.000495
0.000484999
0.000474999
0.000464999
0.000454999
0.000444999
0.000434999
0.000424999
0.000414999
0.000404998
0.000394998
0.000384998
0.000374998
0.000364998
0.000354998
0.000344998
0.000334997
0.000324997
0.000314997
0.000304997
0.000294997
0.000284997
0.000274997
0.000264996
0.000254996
0.000244996
0.000234996
0.000224996
0.000214996
0.000204996
0.000194996
0.000184995
0.000174995
0.000164995
0.000154995
0.000144995
0.000134995
0.000124995
0.000114995
0.000104994
9.49944e-05
8.49944e-05
7.49945e-05
6.49947e-05
5.4995e-05
4.49954e-05
3.49961e-05
2.49967e-05
1.49865e-05
4.96382e-06
0.000995033
0.000985017
0.000975002
0.000965003
0.000955004
0.000945004
0.000935005
0.000925005
0.000915005
0.000905005
0.000895005
0.000885005
0.000875005
0.000865004
0.000855004
0.000845004
0.000835004
0.000825004
0.000815004
0.000805004
0.000795004
0.000785003
0.000775003
0.000765003
0.000755003
0.000745003
0.000735003
0.000725003
0.000715002
0.000705002
0.000695002
0.000685002
0.000675002
0.000665002
0.000655002
0.000645002
0.000635001
0.000625001
0.000615001
0.000605001
0.000595001
0.000585001
0.000575001
0.000565001
0.000555
0.000545
0.000535
0.000525
0.000515
0.000505
0.000495
0.000484999
0.000474999
0.000464999
0.000454999
0.000444999
0.000434999
0.000424999
0.000414999
0.000404998
0.000394998
0.000384998
0.000374998
0.000364998
0.000354998
0.000344998
0.000334997
0.000324997
0.000314997
0.000304997
0.000294997
0.000284997
0.000274997
0.000264996
0.000254996
0.000244996
0.000234996
0.000224996
0.000214996
0.000204996
0.000194996
0.000184995
0.000174995
0.000164995
0.000154995
0.000144995
0.000134995
0.000124995
0.000114995
0.000104994
9.49945e-05
8.49945e-05
7.49945e-05
6.49947e-05
5.4995e-05
4.49955e-05
3.49961e-05
2.49964e-05
1.49838e-05
4.95866e-06
0.000997489
0.000987517
0.000977513
0.000967514
0.000957514
0.000947515
0.000937516
0.000927516
0.000917516
0.000907516
0.000897516
0.000887516
0.000877516
0.000867516
0.000857516
0.000847515
0.000837515
0.000827515
0.000817515
0.000807515
0.000797515
0.000787515
0.000777514
0.000767514
0.000757514
0.000747514
0.000737514
0.000727514
0.000717514
0.000707514
0.000697513
0.000687513
0.000677513
0.000667513
0.000657513
0.000647513
0.000637513
0.000627512
0.000617512
0.000607512
0.000597512
0.000587512
0.000577512
0.000567512
0.000557512
0.000547511
0.000537511
0.000527511
0.000517511
0.000507511
0.000497511
0.000487511
0.00047751
0.00046751
0.00045751
0.00044751
0.00043751
0.00042751
0.00041751
0.00040751
0.000397509
0.000387509
0.000377509
0.000367509
0.000357509
0.000347509
0.000337509
0.000327508
0.000317508
0.000307508
0.000297508
0.000287508
0.000277508
0.000267508
0.000257508
0.000247507
0.000237507
0.000227507
0.000217507
0.000207507
0.000197507
0.000187507
0.000177506
0.000167506
0.000157506
0.000147506
0.000137506
0.000127506
0.000117506
0.000107506
9.75056e-05
8.75055e-05
7.75056e-05
6.75058e-05
5.75062e-05
4.75069e-05
3.75079e-05
2.75093e-05
1.75079e-05
7.50598e-06
0.000997413
0.000987478
0.000977485
0.000967488
0.000957489
0.00094749
0.000937491
0.000927491
0.000917491
0.000907491
0.000897491
0.000887491
0.000877491
0.000867491
0.000857491
0.00084749
0.00083749
0.00082749
0.00081749
0.00080749
0.00079749
0.00078749
0.00077749
0.000767489
0.000757489
0.000747489
0.000737489
0.000727489
0.000717489
0.000707489
0.000697488
0.000687488
0.000677488
0.000667488
0.000657488
0.000647488
0.000637488
0.000627488
0.000617487
0.000607487
0.000597487
0.000587487
0.000577487
0.000567487
0.000557487
0.000547486
0.000537486
0.000527486
0.000517486
0.000507486
0.000497486
0.000487486
0.000477486
0.000467485
0.000457485
0.000447485
0.000437485
0.000427485
0.000417485
0.000407485
0.000397484
0.000387484
0.000377484
0.000367484
0.000357484
0.000347484
0.000337484
0.000327484
0.000317483
0.000307483
0.000297483
0.000287483
0.000277483
0.000267483
0.000257483
0.000247482
0.000237482
0.000227482
0.000217482
0.000207482
0.000197482
0.000187482
0.000177482
0.000167481
0.000157481
0.000147481
0.000137481
0.000127481
0.000117481
0.000107481
9.74806e-05
8.74806e-05
7.74807e-05
6.74809e-05
5.74814e-05
4.74821e-05
3.74835e-05
2.74858e-05
1.74895e-05
7.51521e-06
0.000997433
0.000987468
0.000977482
0.000967488
0.000957491
0.000947492
0.000937493
0.000927493
0.000917493
0.000907493
0.000897493
0.000887493
0.000877493
0.000867493
0.000857493
0.000847493
0.000837493
0.000827492
0.000817492
0.000807492
0.000797492
0.000787492
0.000777492
0.000767492
0.000757491
0.000747491
0.000737491
0.000727491
0.000717491
0.000707491
0.000697491
0.000687491
0.00067749
0.00066749
0.00065749
0.00064749
0.00063749
0.00062749
0.00061749
0.000607489
0.000597489
0.000587489
0.000577489
0.000567489
0.000557489
0.000547489
0.000537489
0.000527488
0.000517488
0.000507488
0.000497488
0.000487488
0.000477488
0.000467488