/*--------------------------------*- C++ -*----------------------------------*\
| =========                 |                                                 |
| \\      /  F ield         | OpenFOAM: The Open Source CFD Toolbox           |
|  \\    /   O peration     | Version:  2412                                  |
|   \\  /    A nd           | Website:  www.openfoam.com                      |
|    \\/     M anipulation  |                                                 |
\*---------------------------------------------------------------------------*/
FoamFile
{
    version     2.0;
    format      ascii;
    arch        "LSB;label=32;scalar=64";
    class       volScalarField;
    location    "100";
    object      p;
}
// * * * * * * * * * * * * * * * * * * * * * * * * * * * * * * * * * * * * * //

dimensions      [0 2 -2 0 0 0 0];

internalField   nonuniform List<scalar> 
283461
(
0.000942961
0.000942959
0.000942983
0.000943018
0.000943057
0.000943093
0.000107605
0.00013419
0.000141081
0.000141293
0.00013881
0.000134936
0.000130307
0.000125289
0.000120036
0.000114595
0.000109054
0.000103468
9.78808e-05
9.23336e-05
8.67668e-05
8.11108e-05
7.54376e-05
6.99034e-05
6.46531e-05
5.96995e-05
5.50516e-05
5.07542e-05
4.67872e-05
4.31263e-05
3.97383e-05
3.65959e-05
3.36809e-05
3.0976e-05
2.84708e-05
2.61618e-05
2.40374e-05
2.20838e-05
2.02887e-05
1.86422e-05
1.71364e-05
1.57651e-05
1.45228e-05
1.34054e-05
1.24086e-05
1.15291e-05
1.07635e-05
1.01089e-05
9.55996e-06
9.10592e-06
8.71403e-06
8.31791e-06
7.72971e-06
6.62617e-06
3.54109e-08
0.000942941
0.000942948
0.000942956
0.00094298
0.000943019
0.000943071
0.000943138
0.000943245
0.000943306
0.00094335
0.000943375
0.000943349
0.000943354
0.000943531
0.000943784
0.000944368
0.000249515
0.000242482
0.000226065
0.000164251
0.000156772
0.000151583
0.000146609
0.000141649
0.000136539
0.000131281
0.000125919
0.000120478
0.000114919
0.000109317
0.000103669
9.79826e-05
9.22736e-05
8.65703e-05
8.0902e-05
7.53111e-05
6.98529e-05
6.46063e-05
5.96382e-05
5.49727e-05
5.06648e-05
4.6694e-05
4.30329e-05
3.9645e-05
3.65018e-05
3.35847e-05
3.08753e-05
2.83649e-05
2.60538e-05
2.39294e-05
2.19766e-05
2.0182e-05
1.85352e-05
1.70281e-05
1.56543e-05
1.4408e-05
1.32842e-05
1.22778e-05
1.13835e-05
1.05953e-05
9.90479e-06
9.29802e-06
8.74876e-06
8.19951e-06
7.54092e-06
6.56078e-06
4.8478e-06
-1.65956e-08
0.000942939
0.00094294
0.000942946
0.000942967
0.000943004
0.000943052
0.00094311
0.000943186
0.000943244
0.000943282
0.000943305
0.000943295
0.000943316
0.000943454
0.000943674
0.00094413
0.000943272
0.000942479
0.000943037
0.000944694
0.000935763
0.000937124
0.000937697
0.000940272
0.000284298
0.000258052
0.000237872
0.000217285
0.000182296
0.00016946
0.00015977
0.000151894
0.000145009
0.000138625
0.000132675
0.000126862
0.000121013
0.000115223
0.000109499
0.000103767
9.80213e-05
9.22794e-05
8.65579e-05
8.08793e-05
7.52702e-05
6.97938e-05
6.45311e-05
5.95318e-05
5.48279e-05
5.04996e-05
4.65203e-05
4.28576e-05
3.94691e-05
3.63245e-05
3.34043e-05
3.06864e-05
2.81653e-05
2.58508e-05
2.37275e-05
2.17769e-05
1.99838e-05
1.8337e-05
1.6828e-05
1.54506e-05
1.41981e-05
1.3065e-05
1.20448e-05
1.11303e-05
1.03119e-05
9.57626e-06
8.90153e-06
8.251e-06
7.55608e-06
6.70515e-06
5.51986e-06
3.70778e-06
8.0299e-08
0.000942935
0.000942929
0.000942926
0.00094294
0.000942974
0.000943016
0.000943065
0.000943121
0.000943166
0.000943195
0.000943212
0.000943206
0.000943212
0.000943269
0.000943312
0.000943397
0.000942847
0.000942316
0.000942323
0.000942738
0.000940746
0.00093825
0.000937838
0.000937432
0.000938197
0.000935818
0.000932868
0.000930654
0.000927242
0.000924136
0.000923239
0.000920099
0.000924034
0.000842541
0.000857012
0.00034693
0.000319961
0.000288467
0.000249205
0.000224693
0.000197459
0.000180904
0.000168017
0.00015764
0.000148901
0.000141227
0.000134298
0.000127791
0.000121556
0.000115592
0.000109755
0.000103924
9.80822e-05
9.22593e-05
8.64944e-05
8.08134e-05
7.52065e-05
6.97219e-05
6.44481e-05
5.93936e-05
5.46214e-05
5.02567e-05
4.62599e-05
4.2591e-05
3.91997e-05
3.60535e-05
3.31312e-05
3.04002e-05
2.7862e-05
2.55436e-05
2.34233e-05
2.14764e-05
1.96859e-05
1.80392e-05
1.65278e-05
1.5146e-05
1.38858e-05
1.27413e-05
1.1705e-05
1.0768e-05
9.91806e-06
9.13913e-06
8.40524e-06
7.67835e-06
6.8921e-06
5.95513e-06
4.73913e-06
3.05939e-06
3.88249e-07
0.000942911
0.00094289
0.000942896
0.000942931
0.000942971
0.000943016
0.000943061
0.000943098
0.000943121
0.000943131
0.000943122
0.000943106
0.000943096
0.000943055
0.000942991
0.000942605
0.000942182
0.000941955
0.000941776
0.000940429
0.000938788
0.000937941
0.000937126
0.00093678
0.000934914
0.000932304
0.00092981
0.000926408
0.000922524
0.000919139
0.000913681
0.000909916
0.000894158
0.000875617
0.000855311
0.000852064
0.000843161
0.000867616
0.000418705
0.00039088
0.000359734
0.000322236
0.000273511
0.000242931
0.000214438
0.000193095
0.000176654
0.000163643
0.000152985
0.000143903
0.000135869
0.000128669
0.000122049
0.000115844
0.000109924
0.000104018
9.80824e-05
9.2178e-05
8.63789e-05
8.07219e-05
7.51403e-05
6.9669e-05
6.43963e-05
5.92552e-05
5.43801e-05
4.99506e-05
4.59168e-05
4.22299e-05
3.88302e-05
3.56829e-05
3.27641e-05
3.00165e-05
2.74554e-05
2.5135e-05
2.30211e-05
2.10794e-05
1.92925e-05
1.76466e-05
1.61327e-05
1.47465e-05
1.34785e-05
1.23227e-05
1.12714e-05
1.03154e-05
9.43966e-06
8.62841e-06
7.85376e-06
7.08133e-06
6.25566e-06
5.3013e-06
4.13775e-06
2.67456e-06
7.10409e-07
0.000942817
0.000942814
0.000942866
0.000942917
0.000942966
0.000943011
0.000943045
0.000943065
0.000943068
0.00094305
0.000943012
0.000942956
0.000942858
0.000942708
0.000942386
0.000941992
0.000941604
0.000941129
0.00094015
0.00093896
0.000937951
0.000936873
0.000935827
0.000934079
0.000931779
0.000929207
0.000925863
0.000921854
0.000917601
0.000911409
0.000904618
0.000891465
0.000874244
0.000855088
0.000839079
0.0008147
0.000792917
0.000710045
0.00056899
0.000484061
0.000417391
0.00035949
0.000302015
0.000265018
0.000232334
0.000205807
0.000185453
0.000169723
0.000157104
0.000146519
0.000137279
0.000129299
0.000122251
0.000115816
0.000109927
0.000104005
9.79797e-05
9.19874e-05
8.61694e-05
8.05847e-05
7.50634e-05
6.96111e-05
6.43237e-05
5.90878e-05
5.4105e-05
4.95684e-05
4.54733e-05
4.1754e-05
3.83392e-05
3.51943e-05
3.22962e-05
2.95336e-05
2.69471e-05
2.46289e-05
2.25253e-05
2.05891e-05
1.88063e-05
1.7162e-05
1.56456e-05
1.42559e-05
1.29807e-05
1.18155e-05
1.07533e-05
9.78626e-06
8.89442e-06
8.06646e-06
7.28063e-06
6.4935e-06
5.67178e-06
4.75391e-06
3.69052e-06
2.45829e-06
9.89113e-07
0.000942656
0.000942762
0.000942848
0.000942915
0.00094297
0.000943009
0.000943031
0.000943032
0.000943006
0.000942951
0.000942865
0.000942731
0.000942535
0.000942226
0.000941833
0.000941376
0.000940802
0.000939952
0.000938926
0.00093786
0.000936665
0.000935334
0.000933553
0.000931301
0.000928623
0.000925243
0.00092107
0.000916144
0.000909588
0.000901503
0.000889589
0.000874456
0.000855526
0.00083441
0.000807128
0.000772638
0.000704557
0.000605315
0.00052374
0.000453005
0.000389377
0.000328928
0.000286162
0.000249184
0.000218402
0.00019404
0.000175776
0.000161314
0.000149096
0.000138345
0.00012942
0.000121902
0.000115187
0.000109556
0.000103764
9.76832e-05
9.16053e-05
8.5831e-05
8.04333e-05
7.50737e-05
6.96437e-05
6.42364e-05
5.89021e-05
5.38641e-05
4.91608e-05
4.49621e-05
4.11769e-05
3.77189e-05
3.45627e-05
3.17022e-05
2.89348e-05
2.63335e-05
2.40279e-05
2.194e-05
2.00081e-05
1.82292e-05
1.65875e-05
1.50684e-05
1.3677e-05
1.23962e-05
1.12236e-05
1.01561e-05
9.18857e-06
8.3016e-06
7.48009e-06
6.70046e-06
5.93263e-06
5.14749e-06
4.30341e-06
3.3638e-06
2.35475e-06
1.26292e-06
0.000942513
0.000942617
0.000942757
0.000942858
0.000942935
0.000942991
0.000943023
0.000943027
0.000942999
0.000942933
0.000942827
0.00094267
0.000942447
0.000942133
0.000941732
0.000941243
0.000940632
0.000939832
0.00093887
0.000937787
0.000936537
0.000935085
0.000933271
0.000931022
0.000928296
0.000924906
0.0009207
0.00091555
0.000908916
0.000900499
0.000889093
0.000874447
0.00085534
0.000831983
0.000802223
0.000763815
0.000707329
0.000629686
0.000555834
0.000485469
0.000420934
0.00036055
0.000312358
0.000268959
0.000232148
0.000202617
0.00018208
0.000165819
0.00015174
0.000138905
0.000128791
0.000120911
0.000113915
0.000108867
0.000103335
9.7199e-05
9.09978e-05
8.5302e-05
8.02239e-05
7.51378e-05
6.9723e-05
6.41569e-05
5.86979e-05
5.35598e-05
4.86504e-05
4.43144e-05
4.04444e-05
3.6915e-05
3.37305e-05
3.09337e-05
2.81927e-05
2.56173e-05
2.33429e-05
2.12729e-05
1.9337e-05
1.75578e-05
1.59187e-05
1.43982e-05
1.30089e-05
1.17236e-05
1.05382e-05
9.48291e-06
8.5449e-06
7.66578e-06
6.86322e-06
6.11713e-06
5.39982e-06
4.67911e-06
3.92606e-06
3.11653e-06
2.27752e-06
1.53137e-06
0.000942336
0.000942607
0.000942777
0.000942898
0.000942984
0.000943037
0.000943052
0.000943027
0.000942958
0.000942841
0.000942669
0.00094243
0.000942109
0.000941701
0.000941197
0.000940574
0.000939797
0.000938867
0.000937785
0.000936516
0.000935019
0.000933195
0.000930964
0.000928251
0.000924909
0.000920772
0.000915654
0.000909154
0.000900856
0.000889924
0.000875705
0.000856537
0.000832397
0.000801766
0.000764006
0.000713965
0.000648775
0.000581636
0.000511217
0.000446103
0.00038339
0.000332317
0.000284149
0.000243637
0.000212411
0.000189194
0.000171033
0.000154573
0.000138507
0.000126834
0.000119093
0.000112049
0.000107845
0.000102507
9.62336e-05
8.98728e-05
8.44683e-05
7.99633e-05
7.53682e-05
7.00089e-05
6.43602e-05
5.88632e-05
5.33375e-05
4.79389e-05
4.34374e-05
3.95228e-05
3.59103e-05
3.2688e-05
2.9956e-05
2.72951e-05
2.48306e-05
2.2605e-05
2.05377e-05
1.85759e-05
1.67889e-05
1.51539e-05
1.36349e-05
1.22523e-05
1.09649e-05
9.80726e-06
8.77144e-06
7.83617e-06
6.99452e-06
6.24103e-06
5.54759e-06
4.89387e-06
4.25499e-06
3.60501e-06
2.92246e-06
2.25603e-06
1.75241e-06
0.000942118
0.000942388
0.000942642
0.000942836
0.000942973
0.000943062
0.000943099
0.000943086
0.000943021
0.000942901
0.000942722
0.000942475
0.00094215
0.000941738
0.000941229
0.000940607
0.000939848
0.00093894
0.000937872
0.000936611
0.000935114
0.000933312
0.000931128
0.000928479
0.00092524
0.000921249
0.000916312
0.000910092
0.000902157
0.00089182
0.000878228
0.000859355
0.000836366
0.000806022
0.000769312
0.00072254
0.000666682
0.00060655
0.000532562
0.000465746
0.00040048
0.000349381
0.000299241
0.000254287
0.000221608
0.00019724
0.000178732
0.000158539
0.000137576
0.000124236
0.000115971
0.000108179
0.000105106
0.000101084
9.5328e-05
8.93065e-05
8.4772e-05
8.0495e-05
7.62622e-05
7.06406e-05
6.45766e-05
5.89348e-05
5.27948e-05
4.67651e-05
4.24244e-05
3.86331e-05
3.47863e-05
3.14666e-05
2.88233e-05
2.62459e-05
2.39289e-05
2.17918e-05
1.97131e-05
1.7708e-05
1.59085e-05
1.4283e-05
1.27737e-05
1.14136e-05
1.01262e-05
8.9898e-06
7.99355e-06
7.10251e-06
6.31631e-06
5.62079e-06
4.99728e-06
4.42253e-06
3.87525e-06
3.331e-06
2.76896e-06
2.2857e-06
1.91169e-06
0.000941901
0.00094237
0.000942716
0.000942938
0.000943086
0.000943162
0.000943171
0.000943117
0.000943001
0.000942821
0.000942573
0.000942247
0.000941837
0.000941333
0.000940719
0.000939979
0.000939097
0.000938054
0.00093682
0.000935355
0.000933603
0.000931495
0.000928949
0.000925856
0.000922066
0.00091739
0.000911541
0.000904114
0.000894537
0.000881986
0.000864848
0.000844258
0.000813874
0.000776061
0.000733531
0.000687809
0.000636562
0.000553947
0.000482435
0.000405606
0.00034389
0.000295738
0.000255156
0.00022398
0.00020137
0.000186936
0.00016565
0.000138682
0.000114922
0.0001098
0.000105595
0.000103834
0.000100845
9.44574e-05
8.79825e-05
8.44918e-05
8.08976e-05
7.76234e-05
7.1524e-05
6.45794e-05
5.89027e-05
5.18378e-05
4.53289e-05
4.18893e-05
3.78627e-05
3.34871e-05
3.00787e-05
2.74991e-05
2.49759e-05
2.28527e-05
2.08298e-05
1.87521e-05
1.66932e-05
1.48651e-05
1.32661e-05
1.17877e-05
1.04607e-05
9.20496e-06
8.12435e-06
7.16545e-06
6.33516e-06
5.62803e-06
5.01314e-06
4.47529e-06
3.99114e-06
3.54068e-06
3.1003e-06
2.64826e-06
2.30279e-06
2.06055e-06
0.000941581
0.000941919
0.000942501
0.000942863
0.000943099
0.000943229
0.000943272
0.000943238
0.000943133
0.00094296
0.000942715
0.000942395
0.000941992
0.000941498
0.0009409
0.000940184
0.000939333
0.000938326
0.000937136
0.000935727
0.000934048
0.00093204
0.000929628
0.000926712
0.000923153
0.000918776
0.000913321
0.000906421
0.00089759
0.000885924
0.000870697
0.000852721
0.000826229
0.000789882
0.000754018
0.000725138
0.000698438
0.000617191
0.000526909
0.000410624
0.000342345
0.000293227
0.000253439
0.000224099
0.000205509
0.000201161
0.000102771
0.000103534
0.000103298
0.000102462
9.9325e-05
9.36389e-05
8.80506e-05
8.44885e-05
8.06068e-05
7.6916e-05
7.06151e-05
6.3956e-05
5.93821e-05
5.25395e-05
4.56979e-05
4.17098e-05
3.68352e-05
3.19924e-05
2.85987e-05
2.59422e-05
2.35513e-05
2.17103e-05
1.97492e-05
1.75676e-05
1.53928e-05
1.35793e-05
1.20859e-05
1.06914e-05
9.42019e-06
8.1984e-06
7.18399e-06
6.3101e-06
5.57223e-06
4.95936e-06
4.43781e-06
3.99525e-06
3.60755e-06
3.25504e-06
2.91532e-06
2.56823e-06
2.33641e-06
2.25451e-06
0.000940756
0.000941877
0.000942648
0.000943074
0.00094329
0.000943382
0.000943377
0.00094329
0.000943128
0.000942893
0.000942583
0.000942193
0.000941715
0.00094114
0.000940454
0.000939641
0.000938681
0.000937549
0.000936211
0.000934625
0.000932738
0.000930483
0.000927773
0.000924475
0.000920427
0.000915393
0.000909033
0.000900983
0.000890236
0.000877348
0.000862629
0.000842123
0.000805711
0.00076755
0.000741155
0.000722355
0.000678464
0.000622507
0.000101249
0.000101892
0.000102506
9.86051e-05
9.21635e-05
8.63974e-05
8.40219e-05
8.09809e-05
7.82847e-05
7.03816e-05
6.28783e-05
6.03441e-05
5.20118e-05
4.34255e-05
4.06746e-05
3.66841e-05
3.18698e-05
2.72805e-05
2.4411e-05
2.20936e-05
2.02644e-05
1.82234e-05
1.58701e-05
1.37411e-05
1.20474e-05
1.07141e-05
9.47301e-06
8.32168e-06
7.18156e-06
6.25854e-06
5.47834e-06
4.8419e-06
4.33378e-06
3.9148e-06
3.57235e-06
3.28115e-06
3.02259e-06
2.77656e-06
2.52728e-06
2.38885e-06
2.46882e-06
0.000941178
0.000942403
0.000943061
0.00094336
0.000943502
0.00094353
0.000943465
0.000943319
0.000943098
0.000942803
0.00094243
0.000941975
0.000941428
0.000940778
0.000940011
0.000939107
0.000938044
0.000936791
0.000935312
0.000933562
0.000931481
0.000928995
0.000925971
0.000922255
0.00091762
0.000911723
0.000904407
0.000894552
0.000883029
0.000869656
0.000851055
0.000817129
0.000779061
0.000757273
0.000736761
0.000714272
0.000100792
0.000100687
9.75994e-05
9.27714e-05
8.8193e-05
8.44732e-05
8.04105e-05
7.62171e-05
7.01494e-05
6.3877e-05
5.8915e-05
5.17215e-05
4.41013e-05
4.06518e-05
3.63734e-05
3.08414e-05
2.55383e-05
2.16537e-05
1.98557e-05
1.85209e-05
1.66105e-05
1.42104e-05
1.21238e-05
1.04192e-05
9.29455e-06
8.24622e-06
7.20082e-06
6.1537e-06
5.3334e-06
4.6686e-06
4.16049e-06
3.77285e-06
3.46482e-06
3.22234e-06
3.02165e-06
2.84679e-06
2.68151e-06
2.51842e-06
2.46067e-06
2.68502e-06
0.00094138
0.000942461
0.00094312
0.000943453
0.000943633
0.000943692
0.000943651
0.000943525
0.000943321
0.000943045
0.000942694
0.000942265
0.000941752
0.000941145
0.000940431
0.000939591
0.000938606
0.000937449
0.000936089
0.000934489
0.000932598
0.000930361
0.000927639
0.000924281
0.000920064
0.00091455
0.000908007
0.000899068
0.000888468
0.000878054
0.000858522
0.00082071
0.000780489
0.000755049
0.000749248
3.97526e-05
3.87302e-05
3.55619e-05
3.1225e-05
2.64454e-05
1.85368e-05
1.7414e-05
1.60939e-05
1.41569e-05
1.21177e-05
1.02267e-05
8.83533e-06
7.91289e-06
7.03461e-06
6.13552e-06
5.24165e-06
4.51026e-06
3.95769e-06
3.57765e-06
3.30975e-06
3.1091e-06
2.95707e-06
2.83238e-06
2.72519e-06
2.6231e-06
2.52717e-06
2.53008e-06
2.86117e-06
0.000941276
0.000942315
0.000943097
0.000943511
0.000943749
0.000943849
0.000943837
0.000943735
0.000943553
0.000943298
0.000942972
0.000942575
0.000942101
0.000941542
0.000940887
0.00094012
0.000939222
0.000938169
0.000936936
0.000935495
0.000933805
0.000931836
0.000929436
0.000926452
0.000922646
0.000917342
0.000912003
0.000905443
0.000898354
0.000893157
0.000886585
1.27506e-05
1.38036e-05
1.3335e-05
1.20861e-05
1.04039e-05
8.4157e-06
7.40633e-06
6.65441e-06
5.93658e-06
5.19559e-06
4.44194e-06
3.78167e-06
3.36268e-06
3.11491e-06
2.96087e-06
2.85483e-06
2.77531e-06
2.70854e-06
2.65116e-06
2.59401e-06
2.54206e-06
2.59458e-06
2.99146e-06
0.000941244
0.000942229
0.000943063
0.000943548
0.000943848
0.000943994
0.000944016
0.00094394
0.000943782
0.000943552
0.000943254
0.000942891
0.00094246
0.000941955
0.000941365
0.000940677
0.000939874
0.000938934
0.000937835
0.000936556
0.000935072
0.000933384
0.000931307
0.000928639
0.000925039
0.000919082
0.000914872
0.00090859
0.000905395
0.000902331
1.14667e-05
1.19117e-05
1.15479e-05
1.04673e-05
8.77514e-06
7.13952e-06
6.33236e-06
5.60268e-06
4.96958e-06
4.3403e-06
3.71035e-06
3.2038e-06
2.93108e-06
2.80016e-06
2.73694e-06
2.70162e-06
2.67363e-06
2.64763e-06
2.61931e-06
2.583e-06
2.5472e-06
2.64566e-06
3.05763e-06
0.000940784
0.000941691
0.000942846
0.000943501
0.0009439
0.000944111
0.000944177
0.000944131
0.000943999
0.000943794
0.000943527
0.0009432
0.000942815
0.000942367
0.000941849
0.000941248
0.000940549
0.000939731
0.000938775
0.000937668
0.000936404
0.000935043
0.000933366
0.000931128
0.000927779
0.00092041
0.000916755
0.00091275
0.000908887
1.07027e-05
1.0813e-05
1.03748e-05
9.35934e-06
7.7001e-06
6.39285e-06
5.45078e-06
4.66696e-06
4.09818e-06
3.57654e-06
3.08617e-06
2.78943e-06
2.66261e-06
2.62647e-06
2.62783e-06
2.63992e-06
2.64595e-06
2.63864e-06
2.6181e-06
2.58139e-06
2.5352e-06
2.66325e-06
3.01876e-06
0.000940147
0.000941988
0.000943246
0.000943876
0.000944186
0.000944309
0.000944298
0.000944192
0.000944014
0.000943776
0.000943487
0.000943149
0.000942761
0.000942319
0.000941812
0.000941226
0.000940543
0.000939743
0.00093881
0.000937773
0.00093676
0.000935521
0.000933735
0.000930541
0.000920585
0.00091552
0.000915309
1.02928e-05
1.032e-05
9.72073e-06
8.70875e-06
6.89295e-06
5.70922e-06
4.5362e-06
3.81774e-06
3.33683e-06
2.96314e-06
2.65706e-06
2.5322e-06
2.5179e-06
2.55593e-06
2.61006e-06
2.65155e-06
2.6694e-06
2.6624e-06
2.6348e-06
2.58242e-06
2.50362e-06
2.61254e-06
2.86718e-06
0.000940273
0.000942682
0.000943779
0.000944226
0.00094441
0.000944434
0.000944353
0.000944198
0.000943988
0.000943734
0.000943443
0.000943115
0.00094275
0.000942341
0.000941874
0.000941334
0.000940697
0.000939939
0.000939153
0.000938548
0.000937927
0.000937033
0.000934759
1.01981e-05
1.04346e-05
9.24801e-06
7.41457e-06
5.47945e-06
4.70713e-06
3.84288e-06
3.17164e-06
2.72642e-06
2.51041e-06
2.39863e-06
2.40944e-06
2.48173e-06
2.57821e-06
2.66318e-06
2.7117e-06
2.7224e-06
2.70244e-06
2.65902e-06
2.58563e-06
2.47597e-06
2.53489e-06
2.73528e-06
0.000940514
0.000942795
0.000943858
0.000944308
0.000944504
0.000944541
0.000944473
0.000944335
0.000944148
0.000943926
0.000943677
0.000943409
0.000943122
0.000942815
0.000942486
0.000942123
0.000941711
0.000941216
0.000940842
0.000940857
0.000941231
0.000941833
6.65076e-06
5.66317e-06
4.59622e-06
4.15961e-06
3.45483e-06
2.71439e-06
2.24247e-06
2.17573e-06
2.21963e-06
2.34263e-06
2.49811e-06
2.64256e-06
2.74544e-06
2.78712e-06
2.7775e-06
2.73631e-06
2.67555e-06
2.58228e-06
2.44785e-06
2.45123e-06
2.59204e-06
0.000940507
0.000942822
0.000943899
0.000944357
0.000944558
0.000944599
0.000944536
0.000944409
0.000944239
0.000944042
0.000943831
0.000943612
0.000943391
0.000943173
0.00094296
0.000942745
0.0009425
0.000942164
0.00094201
0.000942268
0.000942924
0.000943571
5.95987e-06
4.94196e-06
4.25027e-06
3.83225e-06
3.11485e-06
2.45621e-06
1.82483e-06
1.89194e-06
2.06822e-06
2.30267e-06
2.53356e-06
2.71625e-06
2.83305e-06
2.85254e-06
2.80606e-06
2.73745e-06
2.66714e-06
2.56378e-06
2.41557e-06
2.3344e-06
2.367e-06
0.000940124
0.000942733
0.000943896
0.000944364
0.000944561
0.000944595
0.000944531
0.000944408
0.000944246
0.000944068
0.000943883
0.000943702
0.000943532
0.000943376
0.000943243
0.000943124
0.00094298
0.000942892
0.000942805
0.000943024
0.000943558
0.000944114
0.000944485
4.40238e-06
3.92925e-06
3.32627e-06
2.64173e-06
2.08005e-06
1.46085e-06
1.66729e-06
1.95501e-06
2.27612e-06
2.56584e-06
2.78137e-06
2.91412e-06
2.88481e-06
2.77112e-06
2.6677e-06
2.61406e-06
2.52831e-06
2.40259e-06
2.19188e-06
2.05714e-06
0.000939351
0.000942544
0.000943851
0.000944327
0.000944504
0.000944518
0.00094444
0.000944309
0.000944153
0.000943986
0.000943822
0.00094367
0.000943536
0.000943427
0.00094335
0.000943291
0.000943203
0.000943196
0.000943186
0.000943355
0.000943703
0.00094394
0.000944103
0.000944066
3.38687e-06
2.92757e-06
2.51155e-06
1.78029e-06
1.09616e-06
1.45907e-06
1.84622e-06
2.23366e-06
2.57345e-06
2.82354e-06
2.99939e-06
2.86177e-06
2.6035e-06
2.45463e-06
2.48824e-06
2.48486e-06
2.48556e-06
2.04715e-06
1.64271e-06
0.000941736
0.000941437
0.000942367
0.000943577
0.000944124
0.000944354
0.000944414
0.000944365
0.000944254
0.0009441
0.000943945
0.000943785
0.000943637
0.000943509
0.000943408
0.000943342
0.000943315
0.00094331
0.000943296
0.000943331
0.000943387
0.000943514
0.000943725
0.00094388
0.000943974
0.000944005
2.50734e-06
2.21964e-06
1.43338e-06
1.00779e-06
1.40413e-06
1.78511e-06
2.16965e-06
2.53751e-06
2.84022e-06
3.16199e-06
2.69144e-06
2.03908e-06
1.88118e-06
2.22633e-06
2.47233e-06
2.90919e-06
1.97509e-06
1.08055e-06
0.000941619
0.000942631
0.000943414
0.000943916
0.000944157
0.000944236
0.000944204
0.000944098
0.000943951
0.000943782
0.000943613
0.000943454
0.000943317
0.000943213
0.000943147
0.000943127
0.000943155
0.000943208
0.000943265
0.000943348
0.000943449
0.000943589
0.000943743
0.000943858
0.000943921
0.000943967
9.77112e-07
8.83193e-07
1.27115e-06
1.59585e-06
1.92663e-06
2.30402e-06
2.69221e-06
3.29983e-06
1.95221e-06
9.82457e-07
8.00874e-07
1.67858e-06
2.33715e-06
3.61138e-06
1.66957e-06
4.22609e-07
0.000942214
0.000943173
0.000943693
0.00094391
0.000943987
0.000943957
0.000943848
0.000943689
0.000943504
0.000943314
0.000943129
0.000942968
0.000942843
0.000942763
0.000942739
0.000942776
0.000942869
0.000942993
0.000943135
0.000943293
0.000943439
0.000943597
0.000943699
0.00094379
0.000943889
8.18177e-07
1.15885e-06
1.43221e-06
1.69721e-06
2.09107e-06
2.67525e-06
4.23287e-06
-1.18243e-06
9.77666e-07
2.50592e-06
5.2062e-06
0.000943888
0.000943234
0.000943601
0.000943642
0.000943603
0.000943496
0.000943326
0.000943118
0.000942893
0.000942672
0.00094247
0.000942303
0.000942187
0.000942133
0.000942153
0.000942256
0.000942431
0.000942643
0.000942901
0.000943179
0.000943378
0.000943583
0.000943679
0.000943723
0.000939915
0.000942152
0.000942849
0.000942923
0.000942819
0.000942618
0.000942368
0.000942102
0.000941845
0.000941617
0.000941437
0.000941322
0.00094129
0.000941358
0.000941538
0.000941817
0.000942145
0.000942544
0.000942978
0.000943188
0.000943485
0.000943773
0.000943792
0.000940519
0.00094162
0.000942196
0.000942159
0.000941992
0.000941738
0.000941435
0.000941118
0.000940814
0.000940548
0.000940341
0.000940215
0.000940194
0.000940306
0.000940573
0.000940975
0.000941438
0.000942009
0.000942684
0.000942994
0.000943475
0.000943936
0.000944357
0.000941639
0.000941616
0.000941282
0.000940999
0.000940678
0.000940312
0.000939933
0.000939571
0.000939253
0.000939004
0.00093885
0.000938819
0.000938946
0.000939256
0.000939735
0.000940256
0.000940878
0.000941519
0.000941931
0.000942501
0.000935939
0.000938924
0.000939663
0.000939651
0.000939377
0.000938978
0.000938537
0.000938107
0.000937726
0.000937424
0.000937226
0.000937162
0.000937267
0.000937561
0.000938055
0.000938721
0.000939461
0.000940327
0.000941044
0.000942218
0.000934561
0.000937364
0.000938367
0.00093834
0.000937981
0.000937484
0.000936946
0.000936429
0.000935974
0.000935613
0.000935374
0.000935287
0.000935386
0.000935699
0.000936272
0.000937141
0.000938068
0.000939199
0.000939723
0.000935929
0.00093707
0.000937467
0.000937089
0.000936495
0.000935828
0.000935156
0.000934533
0.000934
0.000933589
0.000933328
0.000933253
0.000933402
0.000933822
0.000934588
0.000935694
0.000936964
0.000938478
0.000938132
0.000941054
0.000937897
0.000936873
0.000935848
0.000934877
0.000933979
0.000933141
0.0009324
0.000931789
0.000931339
0.000931079
0.000931043
0.000931265
0.00093178
0.000932638
0.00093374
0.000934989
0.000936245
0.000936819
0.000933474
0.000934147
0.000933886
0.000932853
0.000931819
0.000930836
0.000929978
0.000929294
0.000928817
0.000928573
0.000928587
0.000928871
0.000929428
0.000930253
0.000931223
0.000932171
0.000934306
0.000936664
0.000940449
0.000933867
0.000932704
0.000930904
0.000929477
0.000928244
0.000927224
0.000926448
0.000925944
0.000925726
0.000925805
0.000926174
0.000926811
0.000927679
0.000928663
0.000929278
0.000932002
0.000923997
0.000928388
0.000927853
0.000926539
0.000925175
0.000924014
0.000923143
0.000922608
0.000922419
0.000922571
0.000923038
0.000923769
0.000924735
0.00092603
0.000927685
0.000933165
0.000924638
0.000927528
0.000925595
0.000923635
0.000921758
0.000920315
0.000919282
0.000918687
0.000918515
0.000918736
0.000919283
0.000920044
0.000920847
0.000921633
0.000922114
0.000934114
0.0009327
0.000924724
0.000920728
0.000917828
0.000915954
0.000914711
0.00091404
0.000913894
0.000914231
0.000914965
0.000915948
0.000916808
0.000917097
0.000916706
0.000943045
0.000923566
0.000917175
0.00091307
0.000910691
0.000909251
0.000908494
0.000908378
0.000908884
0.00090997
0.000911539
0.000913135
0.000914086
0.000913304
0.000908638
0.000899475
0.000905117
0.00090493
0.000903658
0.00090252
0.000901801
0.000901718
0.000902407
0.000903997
0.00090662
0.000909834
0.000913631
0.000915029
0.000911908
0.000890941
0.00089676
0.000897611
0.000896387
0.000894992
0.000894005
0.00089369
0.000894243
0.000895886
0.000898924
0.000902648
0.000908841
0.000912073
0.000914335
0.000893497
0.000893582
0.000891668
0.000889042
0.00088674
0.000885115
0.000884275
0.000884396
0.000885878
0.000889528
0.000895531
0.000905924
0.000908081
0.000911094
0.000895881
0.00088677
0.000881404
0.000877635
0.000875115
0.000873508
0.000872777
0.000873218
0.000875584
0.000881412
0.00089249
0.000912183
0.000881158
0.000874668
0.000870806
0.000866678
0.000863762
0.000861555
0.000859791
0.000858387
0.000857295
0.000857212
0.000854472
0.000908862
0.00087307
0.000862562
0.000855594
0.000851733
0.000848936
0.000846188
0.00084287
0.000838109
0.000830647
0.000813938
0.000786314
0.000786558
0.00083022
0.000838645
0.000838621
0.000837444
0.000835757
0.000833323
0.000829949
0.000825317
0.000819038
0.000806618
0.000787396
0.000785535
0.000798964
0.000812788
0.000820055
0.000822358
0.000822317
0.000820439
0.000816822
0.000811222
0.000803285
0.000789507
0.000775202
0.000768899
0.000755683
0.000778726
0.000794112
0.000804563
0.000808799
0.000809958
0.000808752
0.000805518
0.000800307
0.000793078
0.000782196
0.000770183
0.000758543
0.000752354
0.000739913
0.000734502
0.000747937
0.00077332
0.000789872
0.000796396
0.000798646
0.000798049
0.000795299
0.000790742
0.000784586
0.000776282
0.000766434
0.00075542
0.000751946
0.000738315
0.000730547
0.000655678
0.000654172
0.000727968
0.000761933
0.00077877
0.000786025
0.000788552
0.000788011
0.000785266
0.000780739
0.000774637
0.000766761
0.000756398
0.000747838
0.000743413
0.000720534
0.000705466
0.000691353
0.000719156
0.000732825
0.000732792
0.000722647
0.000701727
0.000705879
0.000718152
0.000748565
0.000765364
0.000774458
0.000778861
0.000780006
0.000778691
0.000775438
0.000770521
0.000764074
0.000756063
0.0007455
0.000736391
0.000723471
0.000701507
0.000691191
0.000679479
0.000667471
0.000763986
0.000781026
0.00077762
0.000765171
0.000754172
0.000756055
0.000752822
0.000746705
0.000736893
0.000738368
0.000744804
0.000757025
0.000765388
0.000770309
0.000772331
0.000771999
0.000769731
0.000765828
0.000760457
0.000753701
0.000745562
0.000735348
0.000725697
0.000714077
0.00069667
0.000681374
0.000667619
0.000654483
0.000639745
0.000639086
0.000451878
0.000452059
0.000452232
0.000452289
0.000452305
0.000806402
0.000824029
0.000814469
0.00079433
0.000798079
0.000791092
0.000780492
0.000773192
0.000770879
0.000766548
0.000761758
0.000756297
0.000754795
0.000756578
0.000761197
0.000764529
0.000766148
0.000765977
0.000764159
0.00076086
0.000756221
0.000750337
0.000743273
0.000735061
0.000725269
0.000715437
0.000703573
0.000684095
0.000668605
0.000654747
0.000643786
0.000637554
0.000638176
0.000451671
0.000451937
0.000452162
0.000452265
0.000452333
0.000999114
0.00102174
0.000856016
0.000877204
0.000864658
0.000839438
0.000838953
0.000825723
0.000811696
0.000808408
0.000801167
0.000792955
0.000785623
0.000780275
0.000774946
0.000769971
0.000765293
0.000762589
0.000761702
0.000762181
0.00076221
0.000761325
0.000759312
0.000756126
0.000751781
0.000746303
0.0007397
0.00073195
0.000722984
0.000712432
0.000701132
0.000687802
0.000670631
0.000654244
0.000638696
0.000630015
0.000628043
0.000632847
0.000450504
0.000451245
0.000451779
0.000452133
0.000452343
0.000452509
0.000994128
0.000985326
0.000942451
0.00090139
0.000892641
0.000873963
0.000854768
0.000846795
0.000835183
0.000823569
0.000816311
0.000808104
0.000799875
0.000792313
0.000785841
0.000779814
0.00077432
0.000769349
0.000765528
0.000762741
0.00076065
0.000758407
0.000755642
0.000752127
0.000747745
0.000742439
0.000736173
0.00072891
0.000720593
0.0007111
0.000700115
0.000687897
0.000673019
0.000655998
0.000637243
0.000623655
0.000616589
0.00061235
0.000584457
0.000527384
0.000512451
0.00051378
0.000447314
0.000448594
0.0004492
0.000450012
0.00045046
0.000451165
0.000451753
0.000452201
0.000452575
0.000452896
0.000994765
0.000975639
0.000944288
0.000914221
0.000896622
0.000879354
0.000862917
0.000851782
0.000840522
0.000829781
0.00082115
0.000812243
0.000803579
0.000795572
0.000788344
0.000781668
0.000775556
0.000769983
0.000765144
0.000760939
0.000757126
0.000753261
0.000749064
0.000744333
0.000738933
0.000732773
0.000725784
0.000717899
0.000709037
0.000699052
0.000687716
0.00067511
0.000660375
0.000644584
0.000627914
0.0006132
0.000601092
0.00059019
0.000558025
0.000522815
0.000509666
0.000507888
0.000494582
0.000485205
0.000488309
0.000446965
0.000452034
0.000452943
0.000452665
0.000451178
0.000448657
0.000447693
0.000448958
0.000449863