/*--------------------------------*- C++ -*----------------------------------*\
| =========                 |                                                 |
| \\      /  F ield         | OpenFOAM: The Open Source CFD Toolbox           |
|  \\    /   O peration     | Version:  2412                                  |
|   \\  /    A nd           | Website:  www.openfoam.com                      |
|    \\/     M anipulation  |                                                 |
\*---------------------------------------------------------------------------*/
FoamFile
{
    version     2.0;
    format      ascii;
    arch        "LSB;label=32;scalar=64";
    class       surfaceScalarField;
    location    "100";
    object      phi;
}
// * * * * * * * * * * * * * * * * * * * * * * * * * * * * * * * * * * * * * //

dimensions      [0 3 -1 0 0 0 0];

oriented        oriented;

internalField   nonuniform List<scalar> 
9663
(
5.45252e-18
1.95495e-23
1.76604e-22
5.45262e-18
-4.08694e-24
-6.51536e-23
5.45261e-18
1.16183e-23
2.8829e-23
5.45264e-18
3.57963e-24
-1.13732e-23
5.45265e-18
3.78406e-24
-1.72781e-24
5.45266e-18
3.3025e-24
5.18146e-24
5.45267e-18
2.0728e-24
-5.55381e-25
5.45267e-18
1.65627e-24
6.1567e-25
5.45268e-18
1.2067e-24
1.00769e-24
5.45268e-18
8.89526e-25
4.00575e-25
5.45269e-18
6.83949e-25
3.7592e-25
5.45269e-18
5.46155e-25
3.65196e-25
5.45269e-18
4.35178e-25
2.9744e-25
5.45269e-18
3.62211e-25
2.44666e-25
5.45269e-18
2.98353e-25
2.19655e-25
5.45269e-18
2.51449e-25
1.88752e-25
5.4527e-18
2.08779e-25
1.65752e-25
5.4527e-18
1.78034e-25
1.47928e-25
5.4527e-18
1.51681e-25
1.29645e-25
5.4527e-18
1.30313e-25
1.19049e-25
5.4527e-18
1.13066e-25
9.50419e-26
5.4527e-18
9.69573e-26
7.93813e-26
5.4527e-18
8.6669e-26
5.7175e-26
5.4527e-18
7.80851e-26
4.7863e-26
5.4527e-18
7.37594e-26
3.2576e-26
5.4527e-18
6.80512e-26
2.89209e-26
5.4527e-18
6.50168e-26
2.51528e-26
5.4527e-18
6.16693e-26
2.18999e-26
5.4527e-18
5.89952e-26
2.01028e-26
5.4527e-18
5.75069e-26
1.9322e-26
5.4527e-18
5.75503e-26
1.31996e-26
5.4527e-18
5.49815e-26
1.25224e-26
5.4527e-18
5.53488e-26
3.43767e-27
5.4527e-18
5.0688e-26
1.17632e-26
5.4527e-18
4.83705e-26
1.16687e-26
5.4527e-18
4.3578e-26
1.50409e-26
5.4527e-18
4.13018e-26
1.20576e-26
5.4527e-18
3.74121e-26
1.93246e-26
5.4527e-18
3.70288e-26
1.37177e-26
5.4527e-18
3.40332e-26
1.38727e-26
5.4527e-18
3.26464e-26
1.41276e-26
5.4527e-18
3.29229e-26
9.98371e-27
5.4527e-18
3.11209e-26
1.06643e-26
5.4527e-18
3.2973e-26
9.69392e-27
5.4527e-18
3.56494e-26
2.80927e-27
5.4527e-18
3.69339e-26
4.10123e-27
5.4527e-18
3.72054e-26
-9.96933e-27
5.4527e-18
3.40316e-26
2.34738e-27
5.4527e-18
2.96442e-26
9.25045e-28
5.4527e-18
2.52995e-26
8.07119e-27
5.4527e-18
2.17739e-26
4.60374e-27
5.4527e-18
1.77613e-26
1.91434e-26
5.4527e-18
1.67682e-26
6.62999e-27
5.4527e-18
1.42404e-26
1.11916e-26
5.4527e-18
1.37506e-26
1.98713e-27
5.45271e-18
9.65382e-27
9.43263e-27
5.45271e-18
8.85746e-27
1.16949e-28
5.45271e-18
6.77588e-27
1.66352e-26
5.45271e-18
1.06682e-26
-5.06817e-28
5.45271e-18
1.12827e-26
2.75968e-27
5.45271e-18
1.19857e-26
-1.13078e-26
5.45271e-18
1.2323e-26
-6.34445e-27
5.45271e-18
8.46082e-27
-1.14355e-26
5.45271e-18
7.84076e-27
-1.20144e-27
5.45271e-18
3.26056e-27
-4.09932e-27
5.45271e-18
1.79931e-27
3.78254e-27
5.45271e-18
-3.25654e-27
-5.55429e-28
5.45271e-18
-4.40118e-27
5.05726e-27
5.45271e-18
-9.84017e-27
1.04931e-27
5.45271e-18
-1.01469e-26
5.73492e-27
5.45271e-18
-1.55658e-26
1.5683e-27
5.45271e-18
-1.64234e-26
7.52107e-27
5.45271e-18
-1.98271e-26
9.05427e-27
5.45271e-18
-2.16799e-26
1.39211e-26
5.45271e-18
-2.38225e-26
5.74572e-27
5.45271e-18
-2.47677e-26
1.3112e-26
5.45271e-18
-1.94504e-26
1.86752e-27
5.4527e-18
-1.92706e-26
3.88308e-27
5.4527e-18
-1.40062e-26
-1.92566e-27
5.4527e-18
-1.4691e-26
1.73033e-27
5.4527e-18
-1.26049e-26
-6.46649e-27
5.4527e-18
-1.33551e-26
2.83584e-27
5.4527e-18
-6.80319e-27
-5.21401e-27
5.4527e-18
-6.49686e-27
-1.23131e-27
5.4527e-18
-7.18382e-28
-4.06691e-27
5.4527e-18
-1.76562e-27
1.16229e-27
5.4527e-18
1.63666e-27
-7.75587e-27
5.4527e-18
1.79857e-28
2.62265e-27
5.4527e-18
6.12816e-27
-6.9671e-27
5.4527e-18
7.25966e-27
-3.84271e-27
5.4527e-18
1.08587e-26
-1.02541e-26
5.45271e-18
1.14166e-26
-5.36389e-27
5.45271e-18
1.05112e-26
-1.00394e-26
5.45271e-18
1.07156e-26
-1.7297e-27
5.45271e-18
8.90126e-27
-1.33076e-27
5.45271e-18
7.02189e-27
-8.50791e-27
5.45271e-18
8.27883e-27
1.38865e-26
5.45271e-18
5.83835e-28
1.13736e-27
5.45271e-18
3.64894e-27
3.96073e-26
7.91673e-27
7.04172e-26
7.7232e-18
-1.06425e-23
2.44958e-22
7.72332e-18
9.73239e-24
-1.16931e-22
7.72331e-18
-2.84789e-24
6.1168e-23
7.72335e-18
2.69418e-24
-8.50379e-24
7.72337e-18
1.62911e-24
-1.8524e-24
7.72338e-18
1.04702e-24
8.68865e-24
7.72339e-18
9.50491e-25
4.95977e-25
7.7234e-18
5.62956e-25
1.49566e-24
7.72341e-18
4.51829e-25
1.90242e-24
7.72341e-18
3.23413e-25
9.05515e-25
7.72342e-18
2.59513e-25
7.70287e-25
7.72342e-18
2.02807e-25
6.86524e-25
7.72343e-18
1.78783e-25
5.4916e-25
7.72343e-18
1.42023e-25
4.4435e-25
7.72343e-18
1.22858e-25
3.80659e-25
7.72343e-18
9.894e-26
3.31974e-25
7.72343e-18
8.09966e-26
2.76519e-25
7.72343e-18
6.69425e-26
2.56368e-25
7.72344e-18
5.27328e-26
2.05027e-25
7.72344e-18
4.89696e-26
1.96941e-25
7.72344e-18
3.64332e-26
1.4953e-25
7.72344e-18
3.60271e-26
1.40971e-25
7.72344e-18
2.60344e-26
9.83681e-26
7.72344e-18
2.93486e-26
9.85403e-26
7.72344e-18
2.24849e-26
6.91905e-26
7.72344e-18
2.71553e-26
7.52232e-26
7.72344e-18
1.99903e-26
5.52842e-26
7.72344e-18
2.44858e-26
6.66441e-26
7.72344e-18
1.86763e-26
5.04332e-26
7.72344e-18
2.35571e-26
5.91692e-26
7.72344e-18
2.09811e-26
4.39736e-26
7.72344e-18
2.41824e-26
4.87426e-26
7.72344e-18
2.07183e-26
3.15834e-26
7.72344e-18
2.24465e-26
4.77274e-26
7.72344e-18
1.72083e-26
3.72648e-26
7.72344e-18
1.80176e-26
4.82549e-26
7.72344e-18
1.34363e-26
2.95468e-26
7.72344e-18
1.64057e-26
4.63219e-26
7.72344e-18
1.18367e-26
2.63285e-26
7.72344e-18
1.70608e-26
4.26347e-26
7.72344e-18
9.28394e-27
2.00758e-26
7.72344e-18
1.48062e-26
4.38359e-26
7.72344e-18
8.571e-27
1.60712e-26
7.72345e-18
1.77299e-26
3.84758e-26
7.72345e-18
1.48569e-26
1.34208e-26
7.72345e-18
1.9739e-26
3.49558e-26
7.72345e-18
1.63328e-26
1.31263e-27
7.72345e-18
1.86812e-26
3.09311e-26
7.72345e-18
1.21312e-26
8.95425e-27
7.72345e-18
1.19051e-26
3.5302e-26
7.72345e-18
6.53528e-27
3.97022e-27
7.72345e-18
9.54152e-27
3.92868e-26
7.72345e-18
3.89185e-27
1.71053e-27
7.72345e-18
9.24793e-27
3.21002e-26
7.72345e-18
1.37564e-27
-6.27708e-27
7.72345e-18
4.24002e-27
3.19281e-26
7.72345e-18
-1.58205e-27
-1.42291e-26
7.72345e-18
5.73141e-27
3.45367e-26
7.72345e-18
-7.14603e-29
-1.17532e-26
7.72345e-18
8.22978e-27
2.5978e-26
7.72345e-18
7.16903e-28
-2.44961e-26
7.72345e-18
6.00713e-27
1.87489e-26
7.72345e-18
5.63074e-29
-2.41097e-26
7.72345e-18
1.94641e-27
2.06431e-26
7.72345e-18
-3.03564e-27
-1.79744e-26
7.72345e-18
-2.02398e-27
2.13375e-26
7.72345e-18
-6.69313e-27
-1.93879e-26
7.72345e-18
-5.14548e-27
1.76215e-26
7.72345e-18
-1.06635e-26
-2.11369e-26
7.72345e-18
-8.91026e-27
1.41421e-26
7.72345e-18
-1.40302e-26
-2.44162e-26
7.72345e-18
-1.13689e-26
1.14508e-26
7.72345e-18
-1.83107e-26
-1.84534e-26
7.72345e-18
-1.46099e-26
1.82703e-26
7.72345e-18
-2.08302e-26
-2.43516e-26
7.72345e-18
-1.29108e-26
1.18409e-26
7.72345e-18
-1.86513e-26
-2.29703e-26
7.72345e-18
-9.02984e-27
6.03392e-27
7.72345e-18
-1.49368e-26
-2.53909e-26
7.72345e-18
-8.3469e-27
6.55243e-27
7.72345e-18
-1.28878e-26
-2.73241e-26
7.72345e-18
-5.60441e-27
4.56777e-27
7.72345e-18
-9.57366e-27
-1.86813e-26
7.72345e-18
-5.79858e-28
4.86725e-27
7.72345e-18
-6.45861e-27
-1.58002e-26
7.72345e-18
-2.87543e-29
1.11849e-26
7.72345e-18
-3.69198e-27
-1.81267e-26
7.72345e-18
3.20936e-27
1.19581e-26
7.72345e-18
-3.10302e-28
-1.4171e-26
7.72345e-18
7.75711e-27
9.96138e-27
7.72345e-18
1.54831e-27
-1.62276e-26
7.72345e-18
7.95321e-27
1.31723e-26
7.72345e-18
2.41775e-27
-1.67999e-26
7.72345e-18
6.54657e-27
1.81648e-26
7.72345e-18
1.37945e-27
-8.41276e-27
7.72345e-18
5.61459e-27
5.38613e-27
7.72345e-18
-2.14041e-27
2.06944e-26
7.72345e-18
8.60497e-27
-7.01032e-28
7.72345e-18
-4.31627e-29
3.63059e-26
-3.06731e-28
9.61458e-26
5.45252e-18
1.7205e-22
5.45262e-18
-6.45225e-23
5.4526e-18
3.13524e-23
5.45263e-18
-1.0208e-23
5.45265e-18
-1.08635e-24
5.45266e-18
5.33116e-24
5.45267e-18
-3.43093e-25
5.45267e-18
7.79537e-25
5.45268e-18
1.09529e-24
5.45268e-18
4.43822e-25
5.45269e-18
4.15e-25
5.45269e-18
3.98013e-25
5.45269e-18
3.25599e-25
5.45269e-18
2.5869e-25
5.45269e-18
2.3421e-25
5.45269e-18
1.93451e-25
5.4527e-18
1.73135e-25
5.4527e-18
1.46769e-25
5.4527e-18
1.34884e-25
5.4527e-18
1.17308e-25
5.4527e-18
9.75047e-26
5.4527e-18
7.93312e-26
5.4527e-18
6.06969e-26
5.4527e-18
5.27006e-26
5.4527e-18
3.88188e-26
5.4527e-18
3.465e-26
5.4527e-18
2.62717e-26
5.4527e-18
3.13226e-26
5.4527e-18
2.59355e-26
5.4527e-18
2.79136e-26
5.4527e-18
2.13032e-26
5.4527e-18
1.79296e-26
5.4527e-18
1.19582e-26
5.4527e-18
1.57896e-26
5.4527e-18
1.43742e-26
5.4527e-18
1.6154e-26
5.4527e-18
1.92957e-26
5.4527e-18
2.11413e-26
5.4527e-18
1.96284e-26
5.4527e-18
1.53782e-26
5.4527e-18
1.26486e-26
5.4527e-18
1.35471e-26
5.4527e-18
1.25933e-26
5.4527e-18
1.29592e-26
5.4527e-18
1.03765e-26
5.4527e-18
4.72016e-27
5.4527e-18
5.47028e-29
5.4527e-18
2.92827e-27
5.4527e-18
5.45499e-27
5.4527e-18
-1.8526e-28
5.4527e-18
1.52043e-26
5.4527e-18
1.18643e-26
5.4527e-18
1.62529e-26
5.4527e-18
1.16256e-27
5.45271e-18
4.57814e-27
5.45271e-18
-7.725e-27
5.45271e-18
1.03213e-26
5.45271e-18
5.33536e-27
5.45271e-18
1.01036e-26
5.45271e-18
-6.11307e-27
5.45271e-18
-1.02447e-26
5.45271e-18
-1.4751e-26
5.45271e-18
-9.55106e-27
5.45271e-18
-9.9583e-27
5.45271e-18
-2.95481e-27
5.45271e-18
-7.72931e-27
5.45271e-18
-1.95626e-27
5.45271e-18
-7.14313e-27
5.45271e-18
-2.9529e-27
5.45271e-18
-7.62783e-27
5.45271e-18
-4.14383e-27
5.45271e-18
-7.27673e-27
5.45271e-18
3.73429e-28
5.45271e-18
-3.78912e-27
5.45271e-18
2.13138e-27
5.45271e-18
1.83108e-27
5.45271e-18
-1.23924e-27
5.4527e-18
-8.96104e-27
5.4527e-18
-9.57155e-27
5.4527e-18
-1.17764e-26
5.4527e-18
-7.58694e-27
5.4527e-18
-4.1568e-27
5.4527e-18
-3.4932e-27
5.4527e-18
-8.91307e-27
5.4527e-18
-7.1447e-27
5.4527e-18
-1.03877e-26
5.4527e-18
-2.8432e-27
5.4527e-18
-2.90768e-27
5.4527e-18
-1.23436e-27
5.4527e-18
-7.2393e-27
5.4527e-18
-9.92587e-27
5.45271e-18
-1.03314e-26
5.45271e-18
-9.43112e-27
5.45271e-18
-4.86138e-27
5.45271e-18
-5.52509e-28
5.45271e-18
-1.1608e-26
5.45271e-18
1.3815e-26
5.45271e-18
4.30727e-27
5.45271e-18
3.40621e-26
7.8388e-26
6.77788e-18
1.25247e-22
1.37494e-22
6.77801e-18
-5.11859e-23
-4.18808e-23
6.77799e-18
2.05314e-23
3.34714e-23
6.77803e-18
-9.70707e-24
-1.0078e-24
6.77805e-18
-3.10119e-25
6.32288e-24
6.77806e-18
3.61074e-24
8.21939e-24
6.77807e-18
-2.74288e-25
3.00709e-24
6.77808e-18
1.03822e-24
3.09045e-24
6.77808e-18
1.17074e-24
2.72164e-24
6.77809e-18
6.31007e-25
1.73046e-24
6.77809e-18
5.35051e-25
1.44282e-24
6.7781e-18
4.56311e-25
1.18712e-24
6.7781e-18
3.46359e-25
9.85796e-25
6.7781e-18
2.74685e-25
8.18031e-25
6.7781e-18
2.30879e-25
7.00173e-25
6.7781e-18
1.92887e-25
5.99181e-25
6.7781e-18
1.69926e-25
4.97464e-25
6.77811e-18
1.53687e-25
4.40629e-25
6.77811e-18
1.43823e-25
3.52182e-25
6.77811e-18
1.33488e-25
3.28902e-25
6.77811e-18
1.19297e-25
2.50535e-25
6.77811e-18
1.03775e-25
2.35156e-25
6.77811e-18
9.02437e-26
1.72824e-25
6.77811e-18
7.79882e-26
1.74101e-25
6.77811e-18
6.61137e-26
1.36471e-25
6.77811e-18
5.7844e-26
1.43632e-25
6.77811e-18
5.61881e-26
1.15346e-25
6.77811e-18
4.59589e-26
1.24182e-25
6.77811e-18
4.46649e-26
9.63436e-26
6.77811e-18
4.07906e-26
1.11014e-25
6.77811e-18
4.00795e-26
9.50731e-26
6.77811e-18
3.79096e-26
1.04276e-25
6.77811e-18
3.04706e-26
8.28527e-26
6.77811e-18
3.19735e-26
9.63227e-26
6.77811e-18
3.24538e-26
7.93607e-26
6.77811e-18
2.86246e-26
8.92875e-26
6.77811e-18
2.61011e-26
6.39924e-26
6.77811e-18
2.72905e-26
8.0909e-26
6.77811e-18
2.75042e-26
5.96217e-26
6.77811e-18
2.53183e-26
8.07801e-26
6.77811e-18
3.03845e-26
5.12434e-26
6.77811e-18
1.71261e-26
7.39816e-26
6.77811e-18
2.08916e-26
4.02426e-26
6.77811e-18
1.53387e-26
7.23512e-26
6.77812e-18
1.79001e-26
4.41719e-26
6.77812e-18
1.79487e-26
7.26308e-26
6.77812e-18
9.1993e-27
3.46531e-26
6.77812e-18
1.43763e-26
6.45201e-26
6.77812e-18
1.7029e-26
3.38417e-26
6.77812e-18
1.40163e-26
6.06689e-26
6.77812e-18
9.35433e-27
2.27365e-26
6.77812e-18
1.15298e-26
6.08156e-26
6.77812e-18
8.14409e-27
1.65793e-26
6.77812e-18
1.23375e-26
5.30045e-26
6.77812e-18
1.3224e-26
3.80978e-27
6.77812e-18
8.14522e-27
4.74782e-26
6.77812e-18
1.91717e-27
-6.30317e-27
6.77812e-18
5.73793e-27
4.91508e-26
6.77812e-18
3.05761e-27
-5.34921e-27
6.77812e-18
5.23641e-27
4.3813e-26
6.77812e-18
3.37523e-27
-1.45646e-26
6.77812e-18
9.13232e-28
3.47412e-26
6.77812e-18
-1.39639e-27
-1.40804e-26
6.77812e-18
4.28868e-28
3.07104e-26
6.77812e-18
1.42549e-28
-1.40125e-26
6.77812e-18
1.30154e-27
2.504e-26
6.77812e-18
4.6962e-28
-1.9383e-26
6.77812e-18
-6.15725e-28
1.86203e-26
6.77812e-18
-2.42234e-28
-2.52903e-26
6.77812e-18
-1.51329e-27
9.9934e-27
6.77812e-18
-1.94941e-27
-3.00522e-26
6.77812e-18
-4.79181e-28
5.01498e-27
6.77812e-18
5.21042e-27
-3.37915e-26
6.77812e-18
2.77082e-28
3.20276e-27
6.77812e-18
-4.71346e-27
-4.53673e-26
6.77812e-18
-5.26351e-27
-6.65363e-28
6.77812e-18
-5.08014e-27
-4.14589e-26
6.77812e-18
-4.79651e-27
3.34272e-28
6.77812e-18
3.8263e-28
-3.66767e-26
6.77812e-18
-4.93067e-27
2.46711e-27
6.77812e-18
-8.82856e-27
-3.90381e-26
6.77812e-18
-7.09799e-27
6.53854e-28
6.77812e-18
-5.7726e-27
-2.6784e-26
6.77812e-18
-3.33857e-27
8.98449e-27
6.77812e-18
1.5339e-27
-1.82275e-26
6.77812e-18
-3.09496e-27
1.64645e-26
6.77812e-18
-6.7464e-27
-1.89039e-26
6.77812e-18
-4.13825e-27
1.82248e-26
6.77812e-18
-3.35025e-27
-1.11537e-26
6.77812e-18
-2.33449e-27
2.46671e-26
6.77812e-18
-1.00856e-27
-8.5469e-27
6.77812e-18
-2.52421e-27
2.8195e-26
6.77812e-18
-4.26253e-27
-6.97246e-27
6.77812e-18
-2.31225e-27
2.94632e-26
6.77812e-18
1.08684e-27
-3.16836e-27
6.77812e-18
-1.01358e-26
2.00469e-26
6.77812e-18
7.9662e-27
4.66424e-27
6.77812e-18
-1.02177e-26
2.31116e-26
6.77812e-18
2.36017e-26
2.3081e-26
4.34713e-26
5.94667e-26
1.56756e-17
2.51157e-23
1.23263e-22
1.56756e-17
8.82318e-24
-1.18153e-23
1.56757e-17
1.48897e-23
4.40424e-23
1.56757e-17
7.90139e-24
1.40688e-23
1.56758e-17
7.03406e-24
1.42815e-23
1.56758e-17
6.89218e-24
1.74707e-23
1.56758e-17
4.71601e-24
9.94365e-24
1.56758e-17
3.68239e-24
7.98037e-24
1.56758e-17
2.96548e-24
6.6014e-24
1.56758e-17
2.13816e-24
4.64646e-24
1.56759e-17
1.7014e-24
3.64693e-24
1.56759e-17
1.3333e-24
2.92176e-24
1.56759e-17
1.09959e-24
2.38569e-24
1.56759e-17
8.87124e-25
1.95354e-24
1.56759e-17
7.48811e-25
1.64819e-24
1.56759e-17
6.16349e-25
1.37914e-24
1.56759e-17
5.18325e-25
1.15716e-24
1.56759e-17
4.43761e-25
9.76687e-25
1.56759e-17
3.76939e-25
8.15666e-25
1.56759e-17
3.38443e-25
7.03089e-25
1.56759e-17
2.81243e-25
5.81338e-25
1.56759e-17
2.58558e-25
5.11236e-25
1.56759e-17
2.15e-25
4.32646e-25
1.56759e-17
2.08226e-25
4.0189e-25
1.56759e-17
1.77326e-25
3.5632e-25
1.56759e-17
1.78913e-25
3.46455e-25
1.56759e-17
1.53896e-25
3.15548e-25
1.56759e-17
1.56656e-25
3.11207e-25
1.56759e-17
1.3989e-25
2.88221e-25
1.56759e-17
1.47032e-25
2.87772e-25
1.56759e-17
1.36372e-25
2.70839e-25
1.56759e-17
1.43464e-25
2.7434e-25
1.56759e-17
1.29268e-25
2.58809e-25
1.56759e-17
1.30852e-25
2.62446e-25
1.56759e-17
1.12439e-25
2.38997e-25
1.56759e-17
1.10341e-25
2.26596e-25
1.56759e-17
9.47681e-26
1.9819e-25
1.56759e-17
1.00125e-25
1.91835e-25
1.56759e-17
8.56461e-26
1.68873e-25
1.56759e-17
9.38373e-26
1.72956e-25
1.56759e-17
7.5713e-26
1.55629e-25
1.56759e-17
8.56553e-26
1.67915e-25
1.56759e-17
7.27856e-26
1.54762e-25
1.56759e-17
8.98287e-26
1.72701e-25
1.56759e-17
8.50979e-26
1.63158e-25
1.56759e-17
9.82657e-26
1.80268e-25
1.56759e-17
8.59649e-26
1.63118e-25
1.56759e-17
8.60625e-26
1.72551e-25
1.56759e-17
6.96852e-26
1.44954e-25
1.56759e-17
6.57079e-26
1.35777e-25
1.56759e-17
4.56139e-26
9.92772e-26
1.56759e-17
5.1945e-26
1.01518e-25
1.56759e-17
3.31953e-26
7.25557e-26
1.56759e-17
4.74249e-26
8.99772e-26
1.56759e-17
2.33351e-26
5.69655e-26
1.56759e-17
3.44723e-26
6.88271e-26
1.56759e-17
7.63481e-27
3.35845e-26
1.56759e-17
3.22239e-26
6.04032e-26
1.56759e-17
1.39835e-26
3.59878e-26
1.56759e-17
4.05834e-26
7.3718e-26
1.56759e-17
2.31034e-26
5.19982e-26
1.56759e-17
3.4251e-26
7.67603e-26
1.56759e-17
1.54442e-26
5.00456e-26
1.56759e-17
1.95016e-26
6.09042e-26
1.56759e-17
3.04566e-27
2.99567e-26
1.56759e-17
4.58193e-27
3.38498e-26
1.56759e-17
-1.24298e-26
2.53421e-27
1.56759e-17
-1.09413e-26
4.47518e-27
1.56759e-17
-2.7273e-26
-2.30148e-26
1.56759e-17
-2.46632e-26
-2.20685e-26
1.56759e-17
-4.17487e-26
-4.94076e-26
1.56759e-17
-3.68055e-26
-4.77655e-26
1.56759e-17
-5.60558e-26
-7.9799e-26
1.56759e-17
-4.69758e-26
-7.61764e-26
1.56759e-17
-7.05569e-26
-1.04809e-25
1.56759e-17
-4.85234e-26
-8.08787e-26
1.56759e-17
-6.08149e-26
-9.56137e-26
1.56759e-17
-3.18529e-26
-5.65922e-26
1.56759e-17
-4.76064e-26
-6.99697e-26
1.56759e-17
-2.48771e-26
-4.38227e-26
1.56759e-17
-4.36721e-26
-6.33247e-26
1.56759e-17
-1.94979e-26
-3.43566e-26
1.56759e-17
-2.9365e-26
-4.14366e-26
1.56759e-17
-2.19926e-27
-4.22844e-27
1.56759e-17
-1.49995e-26
-1.12709e-26
1.56759e-17
5.89105e-27
1.4067e-26
1.56759e-17
-1.06899e-26
-4.24236e-27
1.56759e-17
1.35202e-26
2.46232e-26
1.56759e-17
3.55529e-27
1.68997e-26
1.56759e-17
2.78432e-26
5.22483e-26
1.56759e-17
1.71488e-26
4.6039e-26
1.56759e-17
3.21353e-26
7.03296e-26
1.56759e-17
1.73838e-26
5.32643e-26
1.56759e-17
2.68182e-26
6.82737e-26
1.56759e-17
1.29987e-26
4.82156e-26
1.56759e-17
1.70637e-26
4.98676e-26
1.56759e-17
8.53004e-27
4.51463e-26
1.56759e-17
1.62881e-26
5.41078e-26
1.56759e-17
7.91599e-27
4.5812e-26
1.50933e-26
6.08636e-26
1.83946e-17
-5.38183e-24
1.40472e-22
1.83946e-17
1.05513e-23
-1.5441e-23
1.83947e-17
7.39633e-24
6.51124e-23
1.83947e-17
1.00063e-23
1.38202e-23
1.83948e-17
7.42309e-24
1.51763e-23
1.83948e-17
5.05331e-24
2.04946e-23
1.83948e-17
3.96904e-24
1.08824e-23
1.83949e-17
2.86613e-24
8.86939e-24
1.83949e-17
1.95938e-24
7.34255e-24
1.83949e-17
1.5921e-24
5.24159e-24
1.83949e-17
1.19792e-24
4.03038e-24
1.83949e-17
1.00795e-24
3.28096e-24
1.83949e-17
8.16284e-25
2.6316e-24
1.83949e-17
7.13871e-25
2.17508e-24
1.83949e-17
5.86522e-25
1.81405e-24
1.83949e-17
4.97239e-25
1.52101e-24
1.83949e-17
4.14854e-25
1.28081e-24
1.83949e-17
3.39497e-25
1.06676e-24
1.83949e-17
3.00745e-25
9.11258e-25
1.83949e-17
2.40879e-25
7.5756e-25
1.83949e-17
2.22921e-25
6.55648e-25
1.83949e-17
1.69515e-25
5.51235e-25
1.83949e-17
1.6368e-25
4.94522e-25
1.83949e-17
1.27675e-25
4.36592e-25
1.83949e-17
1.34178e-25
4.13651e-25
1.83949e-17
1.08241e-25
3.75794e-25
1.83949e-17
1.18832e-25
3.66389e-25
1.83949e-17
9.44107e-26
3.40156e-25
1.83949e-17
1.06078e-25
3.36471e-25
1.83949e-17
9.05636e-26
3.15548e-25
1.83949e-17
1.08868e-25
3.15719e-25
1.83949e-17
9.38652e-26
3.00485e-25
1.83949e-17
1.07167e-25
3.0195e-25
1.8395e-17
8.74177e-26
2.84695e-25
1.8395e-17
9.60522e-26
2.76131e-25
1.8395e-17
7.19253e-26
2.43075e-25
1.8395e-17
8.10254e-26
2.33583e-25
1.8395e-17
6.01503e-26
2.0139e-25
1.8395e-17
7.94923e-26
2.03607e-25
1.8395e-17
5.52541e-26
1.73469e-25
1.8395e-17
7.8228e-26
1.88518e-25
1.8395e-17
4.96789e-26
1.68503e-25
1.8395e-17
7.58503e-26
1.91335e-25
1.8395e-17
5.49571e-26
1.77054e-25
1.8395e-17
8.56398e-26
2.00617e-25
1.8395e-17
6.51694e-26
1.88738e-25
1.8395e-17
8.54831e-26
1.99151e-25
1.8395e-17
5.84516e-26
1.78544e-25
1.8395e-17
7.06462e-26
1.75716e-25
1.8395e-17
4.00571e-26
1.30176e-25
1.8395e-17
5.40691e-26
1.315e-25
1.8395e-17
2.33386e-26
8.90293e-26
1.8395e-17
4.99132e-26
1.07276e-25
1.8395e-17
1.67374e-26
6.95187e-26
1.8395e-17
4.38834e-26
8.84667e-26
1.8395e-17
2.20156e-27
4.29995e-26
1.8395e-17
3.17634e-26
6.70159e-26
1.8395e-17
-3.70997e-27
3.41224e-26
1.8395e-17
3.80054e-26
7.41366e-26
1.8395e-17
3.35962e-27
5.18232e-26
1.8395e-17
3.74144e-26
8.47973e-26
1.8395e-17
6.35641e-28
6.39196e-26
1.8395e-17
2.2406e-26
7.84898e-26
1.8395e-17
-1.05562e-26
4.77894e-26
1.8395e-17
8.93585e-27
5.3411e-26
1.8395e-17
-2.29244e-26
1.76035e-26
1.8395e-17
-5.61749e-27
1.91975e-26
1.8395e-17
-3.58285e-26
-1.50218e-26
1.8395e-17
-2.19707e-26
-1.11005e-26
1.8395e-17
-4.8605e-26
-4.22882e-26
1.8395e-17
-3.32157e-26
-4.04263e-26
1.8395e-17
-6.08285e-26
-8.00801e-26
1.8395e-17
-3.96727e-26
-7.25882e-26
1.8395e-17
-7.15949e-26
-1.11997e-25
1.8395e-17
-4.68202e-26
-9.60617e-26
1.8395e-17
-7.5444e-26
-1.18906e-25
1.8395e-17
-3.45838e-26
-8.10379e-26
1.8395e-17
-6.02976e-26
-9.61514e-26
1.8395e-17
-2.18091e-26
-5.85746e-26
1.8395e-17
-5.10358e-26
-7.5467e-26
1.8395e-17
-2.33636e-26
-4.99949e-26
1.8395e-17
-4.61798e-26
-6.10748e-26
1.8395e-17
-9.42511e-27
-2.17784e-26
1.8395e-17
-2.87492e-26
-3.08418e-26
1.8395e-17
6.3543e-27
6.96995e-27
1.8395e-17
-1.86042e-26
-9.51593e-27
1.8395e-17
9.56314e-27
1.8223e-26
1.8395e-17
-1.29531e-26
4.93707e-27
1.8395e-17
2.21421e-26
4.32213e-26
1.8395e-17
8.4555e-28
3.54854e-26
1.8395e-17
3.23685e-26
7.18787e-26
1.8395e-17
7.16263e-27
5.88791e-26
1.8395e-17
2.98472e-26
7.76195e-26
1.8395e-17
3.77264e-27
5.77712e-26
1.8395e-17
2.19725e-26
6.82478e-26
1.8395e-17
-6.00776e-28
3.88805e-26
1.8395e-17
1.54184e-26
7.83423e-26
1.8395e-17
-1.17025e-26
4.29537e-26
1.8395e-17
-2.16613e-27
5.55526e-26
-8.02518e-27
7.34573e-26
1.56757e-17
-1.10624e-22
1.23081e-22
1.56756e-17
6.20461e-23
-1.27132e-23
1.56757e-17
-9.78309e-24
3.70622e-23
1.56757e-17
1.85333e-23
8.3469e-24
1.56758e-17
7.8736e-24
1.06635e-23
1.56758e-17
2.85246e-24
1.43054e-23
1.56758e-17
5.19313e-24
7.23344e-24
1.56758e-17
2.54777e-24
6.23834e-24
1.56758e-17
1.68572e-24
5.21793e-24
1.56758e-17
1.49135e-24
3.66869e-24
1.56759e-17
1.1232e-24
2.84962e-24
1.56759e-17
8.43064e-25
2.32158e-24
1.56759e-17
7.28749e-25
1.87948e-24
1.56759e-17
6.0441e-25
1.54363e-24
1.56759e-17
5.0399e-25
1.29489e-24
1.56759e-17
4.16584e-25
1.0819e-24
1.56759e-17
3.30862e-25
9.07684e-25
1.56759e-17
2.76553e-25
7.6089e-25
1.56759e-17
2.075e-25
6.42739e-25
1.56759e-17
1.8499e-25
5.41643e-25
1.56759e-17
1.36295e-25
4.59546e-25
1.56759e-17
1.33393e-25
3.93328e-25
1.56759e-17
1.02455e-25
3.44489e-25
1.56759e-17
1.09936e-25
3.1191e-25
1.56759e-17
9.43256e-26
2.82938e-25
1.56759e-17
1.03736e-25
2.67749e-25
1.56759e-17
8.67942e-26
2.50257e-25
1.56759e-17
9.38562e-26
2.44128e-25
1.56759e-17
8.30671e-26
2.31211e-25
1.56759e-17
9.43269e-26
2.27885e-25
1.56759e-17
8.96986e-26
2.18983e-25
1.56759e-17
1.00974e-25
2.16425e-25
1.56759e-17
9.42877e-26
2.09308e-25
1.56759e-17
9.57645e-26
2.04724e-25
1.56759e-17
7.89607e-26
1.8875e-25
1.56759e-17
8.13342e-26
1.76824e-25
1.56759e-17
6.10727e-26
1.58265e-25
1.56759e-17
6.79727e-26
1.5096e-25
1.56759e-17
5.15036e-26
1.34251e-25
1.56759e-17
6.67431e-26
1.33593e-25
1.56759e-17
4.47944e-26
1.26047e-25
1.56759e-17
6.85269e-26
1.29681e-25
1.56759e-17
4.90084e-26
1.2801e-25
1.56759e-17
7.85257e-26
1.34715e-25
1.56759e-17
6.2074e-26
1.38753e-25
1.56759e-17
9.10864e-26
1.38991e-25
1.56759e-17
7.26932e-26
1.34581e-25
1.56759e-17
8.35068e-26
1.28934e-25
1.56759e-17
4.99165e-26
1.13878e-25
1.56759e-17
6.45715e-26
9.85159e-26
1.56759e-17
2.57313e-26
8.39982e-26
1.56759e-17
5.00069e-26
7.27579e-26
1.56759e-17
1.48605e-26
6.71123e-26
1.56759e-17
4.55403e-26
5.75047e-26
1.56759e-17
9.60413e-28
5.03268e-26
1.56759e-17
3.8671e-26
3.56331e-26
1.56759e-17
-7.65662e-27
3.5095e-26
1.56759e-17
3.65137e-26
3.28822e-26
1.56759e-17
-2.95463e-27
4.58544e-26
1.56759e-17
4.8487e-26
4.13017e-26
1.56759e-17
7.00258e-27
5.07956e-26
1.56759e-17
4.74062e-26
4.35256e-26
1.56759e-17
3.26152e-27
4.59695e-26
1.56759e-17
3.15137e-26
3.29782e-26
1.56759e-17
-1.17415e-26
2.98382e-26
1.56759e-17
1.36696e-26
1.17134e-26
1.56759e-17
-2.79282e-26
5.82528e-27
1.56759e-17
-3.51713e-27
-1.2223e-26
1.56759e-17
-4.30462e-26
-1.88299e-26
1.56759e-17
-1.96662e-26
-3.32936e-26
1.56759e-17
-5.65138e-26
-4.44205e-26
1.56759e-17
-3.53986e-26
-5.64767e-26
1.56759e-17
-7.77616e-26
-6.62502e-26
1.56759e-17
-4.77676e-26
-7.52459e-26
1.56759e-17
-8.36208e-26
-8.0263e-26
1.56759e-17
-4.72981e-26
-7.64911e-26
1.56759e-17
-7.01991e-26
-7.119e-26
1.56759e-17
-2.86701e-26
-6.55389e-26
1.56759e-17
-5.73157e-26
-5.32622e-26
1.56759e-17
-2.10592e-26
-5.26812e-26
1.56759e-17
-4.62518e-26
-4.61421e-26
1.56759e-17
-1.56838e-26
-3.7497e-26
1.56759e-17
-3.06863e-26
-2.67119e-26
1.56759e-17
1.94517e-27
-1.54999e-26
1.56759e-17
-2.03987e-26
-5.93832e-27
1.56759e-17
1.20945e-26
-4.19904e-27
1.56759e-17
-1.01941e-26
2.0517e-27
1.56759e-17
2.03284e-26
9.25247e-27
1.56759e-17
2.44119e-27
2.21581e-26
1.56759e-17
3.76296e-26
3.11512e-26
1.56759e-17
1.58135e-26
3.91708e-26
1.56759e-17
4.4867e-26
4.38056e-26
1.56759e-17
1.75883e-26
4.36752e-26
1.56759e-17
3.96123e-26
4.13894e-26
1.56759e-17
7.22101e-27
4.17096e-26
1.56759e-17
3.72624e-26
3.02227e-26
1.56759e-17
-5.32279e-27
4.20092e-26
1.56759e-17
2.48795e-26
2.80777e-26
1.56759e-17
-2.40262e-26
5.10812e-26
-4.18304e-26
5.77379e-26
6.77789e-18
1.31187e-22
6.77801e-18
-4.47849e-23
6.77799e-18
2.92472e-23
6.77803e-18
-5.99793e-24
6.77805e-18
3.76001e-24
6.77806e-18
5.34986e-24
6.77807e-18
9.08491e-25
6.77808e-18
1.61035e-24
6.77808e-18
1.73246e-24
6.77809e-18
8.21087e-25
6.77809e-18
8.13844e-25
6.7781e-18
6.51419e-25
6.7781e-18
5.67172e-25
6.7781e-18
4.51269e-25
6.7781e-18
3.90785e-25
6.7781e-18
3.40503e-25
6.7781e-18
2.60485e-25
6.77811e-18
2.6034e-25
6.77811e-18
1.72843e-25
6.77811e-18
2.06238e-25
6.77811e-18
1.09356e-25
6.77811e-18
1.49302e-25
6.77811e-18
6.54352e-26
6.77811e-18
1.11287e-25
6.77811e-18
4.73762e-26
6.77811e-18
8.91617e-26
6.77811e-18
3.48023e-26
6.77811e-18
7.66998e-26
6.77811e-18
3.20535e-26
6.77811e-18
7.14496e-26
6.77811e-18
3.49303e-26
6.77811e-18
6.75058e-26
6.77811e-18
2.92855e-26
6.77811e-18
6.58514e-26
6.77811e-18
2.46894e-26
6.77811e-18
5.96773e-26
6.77811e-18
1.78221e-26
6.77811e-18
6.33282e-26
6.77811e-18
1.24329e-26
6.77811e-18
6.36858e-26
6.77811e-18
1.10724e-27
6.77811e-18
6.42952e-26
6.77811e-18
-2.07826e-28
6.77811e-18
6.91233e-26
6.77812e-18
2.05395e-27
6.77812e-18
6.78733e-26
6.77812e-18
-5.59096e-27
6.77812e-18
6.20688e-26
6.77812e-18
-8.47017e-27
6.77812e-18
5.90683e-26
6.77812e-18
-1.61123e-26
6.77812e-18
6.81446e-26
6.77812e-18
-2.35778e-26
6.77812e-18
6.78264e-26
6.77812e-18
-4.21334e-26
6.77812e-18
6.10696e-26
6.77812e-18
-4.90408e-26
6.77812e-18
7.27398e-26
6.77812e-18
-4.80536e-26
6.77812e-18
6.91901e-26
6.77812e-18
-5.81653e-26
6.77812e-18
5.6159e-26
6.77812e-18
-5.31572e-26
6.77812e-18
5.0006e-26
6.77812e-18
-4.92782e-26
6.77812e-18
4.33025e-26
6.77812e-18
-5.30544e-26
6.77812e-18
3.67365e-26
6.77812e-18
-5.717e-26
6.77812e-18
2.80657e-26
6.77812e-18
-5.89979e-26
6.77812e-18
2.4586e-26
6.77812e-18
-6.3955e-26
6.77812e-18
2.55539e-26
6.77812e-18
-6.85774e-26
6.77812e-18
2.89813e-26
6.77812e-18
-6.57438e-26
6.77812e-18
2.6238e-26
6.77812e-18
-6.53524e-26
6.77812e-18
2.30729e-26
6.77812e-18
-5.97826e-26
6.77812e-18
2.48494e-26
6.77812e-18
-4.57239e-26
6.77812e-18
2.92351e-26
6.77812e-18
-4.5124e-26
6.77812e-18
3.00291e-26
6.77812e-18
-4.24804e-26
6.77812e-18
3.69963e-26
6.77812e-18
-3.52802e-26
6.77812e-18
4.24156e-26
6.77812e-18
-3.80873e-26
6.77812e-18
4.24726e-26
6.77812e-18
-3.6937e-26
6.77812e-18
4.31557e-26
6.77812e-18
-3.0831e-26
6.77812e-18
3.32531e-26
6.77812e-18
-2.24291e-26
6.77812e-18
3.50841e-26
6.77812e-18
1.32853e-27
6.47425e-26
5.45253e-18
1.72313e-22
2.35147e-23
5.45262e-18
-7.30032e-23
-3.56794e-24
5.4526e-18
2.27145e-23
1.45756e-23
5.45263e-18
-1.7735e-23
4.86001e-24
5.45265e-18
-6.59313e-24
4.24154e-24
5.45266e-18
1.38373e-24
3.9686e-24
5.45267e-18
-3.08805e-24
2.53487e-24
5.45267e-18
-1.16687e-24
2.11587e-24
5.45268e-18
-2.21712e-25
1.49925e-24
5.45268e-18
-5.15505e-25
1.14929e-24
5.45269e-18
-3.40425e-25
8.37313e-25
5.45269e-18
-2.12311e-25
7.1422e-25
5.45269e-18
-2.01875e-25
5.34918e-25
5.45269e-18
-1.65686e-25
4.78852e-25
5.45269e-18
-1.47124e-25
3.72097e-25
5.45269e-18
-1.02238e-25
3.31207e-25
5.4527e-18
-9.6707e-26
2.65057e-25
5.4527e-18
-4.74089e-26
2.29015e-25
5.4527e-18
-4.80659e-26
1.93414e-25
5.4527e-18
-1.72538e-27
1.59053e-25
5.4527e-18
-1.92557e-26
1.41423e-25
5.4527e-18
5.02493e-27
1.11132e-25
5.4527e-18
-1.97776e-26
1.07648e-25
5.4527e-18
-4.79578e-27
8.64288e-26
5.4527e-18
-2.71599e-26
9.12638e-26
5.4527e-18
-1.65316e-26
7.31102e-26
5.4527e-18
-3.20569e-26
8.27665e-26
5.4527e-18
-2.04844e-26
6.68032e-26
5.4527e-18
-3.32009e-26
7.69184e-26
5.4527e-18
-2.27043e-26
6.12841e-26
5.4527e-18
-3.54145e-26
7.16118e-26
5.4527e-18
-3.00949e-26
5.81401e-26
5.4527e-18
-4.74217e-26
6.9116e-26
5.4527e-18
-3.33731e-26
5.53468e-26
5.4527e-18
-3.93475e-26
6.31878e-26
5.4527e-18
-2.38434e-26
4.70117e-26
5.4527e-18
-3.23307e-26
5.69554e-26
5.4527e-18
-1.25677e-26
3.7994e-26
5.4527e-18
-2.47686e-26
5.18e-26
5.4527e-18
-8.48013e-27
3.06304e-26
5.4527e-18
-2.74924e-26
5.17258e-26
5.4527e-18
-1.43168e-26
3.02334e-26
5.4527e-18
-3.55154e-26
5.2592e-26
5.4527e-18
-1.72437e-26
2.9378e-26
5.4527e-18
-4.19883e-26
5.06511e-26
5.4527e-18
-2.87005e-26
3.31674e-26
5.4527e-18
-5.90147e-26
5.12413e-26
5.4527e-18
-3.06171e-26
3.38632e-26
5.4527e-18
-4.44173e-26
4.55158e-26
5.4527e-18
-1.51452e-26
2.3372e-26
5.4527e-18
-3.29299e-26
4.01972e-26
5.4527e-18
3.40185e-27
1.22792e-26
5.4527e-18
-2.45336e-26
3.30941e-26
5.4527e-18
1.0184e-27
5.04184e-27
5.4527e-18
-2.81473e-26
3.03318e-26
5.45271e-18
6.3219e-27
-3.65597e-28
5.45271e-18
-2.62212e-26
2.96157e-26
5.45271e-18
1.45563e-26
-4.23999e-27
5.45271e-18
-2.62873e-26
2.83442e-26
5.45271e-18
2.70651e-28
-6.07705e-28
5.45271e-18
-4.5159e-26
2.88543e-26
5.45271e-18
-1.12839e-26
6.17288e-27
5.45271e-18
-4.40136e-26
2.66868e-26
5.45271e-18
-4.41167e-27
4.65775e-27
5.45271e-18
-3.0401e-26
2.09605e-26
5.45271e-18
6.10396e-27
-1.59612e-27
5.45271e-18
-1.8806e-26
1.27004e-26
5.45271e-18
1.55685e-26
-9.07459e-27
5.45271e-18
-8.68057e-27
4.54092e-27
5.45271e-18
2.27938e-26
-1.54908e-26
5.45271e-18
1.91971e-28
-1.80243e-27
5.45271e-18
3.25323e-26
-2.39887e-26
5.45271e-18
1.58782e-26
-6.88465e-27
5.45271e-18
4.96567e-26
-3.42657e-26
5.45271e-18
2.05585e-26
-1.07818e-26
5.45271e-18
5.01565e-26