/*--------------------------------*- C++ -*----------------------------------*\
| =========                 |                                                 |
| \\      /  F ield         | OpenFOAM: The Open Source CFD Toolbox           |
|  \\    /   O peration     | Version:  2412                                  |
|   \\  /    A nd           | Website:  www.openfoam.com                      |
|    \\/     M anipulation  |                                                 |
\*---------------------------------------------------------------------------*/
FoamFile
{
    version     2.0;
    format      ascii;
    arch        "LSB;label=32;scalar=64";
    class       surfaceScalarField;
    location    "100";
    object      phi;
}
// * * * * * * * * * * * * * * * * * * * * * * * * * * * * * * * * * * * * * //

dimensions      [0 3 -1 0 0 0 0];

oriented        oriented;

internalField   nonuniform List<scalar> 
116495
(
1.39577e-17
1.90246e-23
9.61448e-23
1.3958e-17
1.04875e-24
-2.49226e-22
1.3958e-17
1.40158e-23
-3.75918e-23
1.39581e-17
6.40303e-24
-8.03487e-23
1.39581e-17
5.19007e-24
-3.95326e-23
1.39582e-17
3.62703e-24
-2.00327e-23
1.39582e-17
2.01892e-24
-1.84964e-23
1.39582e-17
1.15345e-24
-1.00802e-23
1.39582e-17
6.28582e-25
-6.34859e-24
1.39582e-17
3.11114e-25
-4.62992e-24
1.39582e-17
2.14547e-25
-2.44726e-24
1.39582e-17
1.37368e-25
-1.27415e-24
1.39582e-17
1.37267e-25
-5.03342e-25
1.39582e-17
1.2623e-25
-7.42693e-26
1.39582e-17
1.39613e-25
3.22032e-25
1.39582e-17
1.53748e-25
4.6003e-25
1.39582e-17
1.84912e-25
6.34195e-25
1.39582e-17
1.98178e-25
7.05342e-25
1.39582e-17
2.10597e-25
7.6792e-25
1.39582e-17
2.10301e-25
7.28447e-25
1.39582e-17
2.08837e-25
6.9506e-25
1.39582e-17
1.99096e-25
6.40114e-25
1.39582e-17
1.92883e-25
6.18886e-25
1.39582e-17
1.84099e-25
5.79231e-25
1.39582e-17
1.81435e-25
5.40946e-25
1.39582e-17
1.75588e-25
4.78911e-25
1.39582e-17
1.71465e-25
4.44221e-25
1.39582e-17
1.5903e-25
4.12643e-25
1.39582e-17
1.47431e-25
4.26369e-25
1.39582e-17
1.29228e-25
4.01314e-25
1.39582e-17
1.16289e-25
3.92587e-25
1.39582e-17
9.91951e-26
3.44513e-25
1.39582e-17
8.4202e-26
3.26838e-25
1.39582e-17
6.42873e-26
2.88121e-25
1.39582e-17
4.75569e-26
2.90571e-25
1.39582e-17
3.18357e-26
2.66389e-25
1.39582e-17
2.57412e-26
2.48546e-25
1.39582e-17
1.87318e-26
2.15237e-25
1.39582e-17
1.04968e-26
2.21563e-25
1.39582e-17
-4.62108e-27
2.19025e-25
1.39582e-17
-1.83633e-26
2.52455e-25
1.39582e-17
-2.61128e-26
2.50878e-25
1.39582e-17
-1.675e-26
2.17097e-25
1.39582e-17
2.43494e-27
1.44738e-25
1.39582e-17
2.31937e-26
1.03827e-25
1.39582e-17
2.94329e-26
9.2656e-26
1.39582e-17
2.38671e-26
1.18728e-25
1.39582e-17
7.88669e-27
1.24438e-25
1.39582e-17
-5.90686e-27
1.43617e-25
1.39582e-17
-1.59194e-26
1.20167e-25
1.39582e-17
-1.59672e-26
9.62316e-26
1.39582e-17
-1.61668e-26
5.30958e-26
1.39582e-17
-1.6573e-26
4.87334e-26
1.39582e-17
-2.11103e-26
3.67938e-26
1.39582e-17
-2.28827e-26
6.53044e-26
1.39582e-17
-1.85332e-26
5.96385e-26
1.39582e-17
-1.84485e-27
1.71498e-26
1.39582e-17
1.88695e-26
-7.67565e-26
1.39582e-17
4.04209e-26
-1.27484e-25
1.39582e-17
4.15119e-26
-1.2209e-25
1.39582e-17
3.06896e-26
-3.95101e-26
1.39582e-17
1.72533e-26
4.67867e-27
1.39582e-17
1.0924e-26
-1.81347e-26
1.39582e-17
8.95922e-27
-9.564e-26
1.39582e-17
8.49471e-27
-1.32088e-25
1.39582e-17
-1.82559e-27
-1.28598e-25
1.39582e-17
-1.05595e-26
-6.15988e-26
1.39582e-17
-1.96148e-26
-1.90437e-26
1.39582e-17
-2.21993e-26
4.61712e-27
1.39582e-17
-2.06915e-26
-2.70702e-26
1.39582e-17
-1.40786e-26
-5.20046e-26
1.39582e-17
-8.22116e-27
-7.12857e-26
1.39582e-17
1.43233e-28
-6.23816e-26
1.39582e-17
6.31558e-27
-6.04267e-26
1.39582e-17
1.58081e-26
-4.26126e-26
1.39582e-17
2.42815e-26
-4.64272e-26
1.39582e-17
3.83196e-26
-4.25013e-26
1.39582e-17
5.37129e-26
-6.05798e-26
1.39582e-17
7.80932e-26
-7.69644e-26
1.39582e-17
1.05453e-25
-1.15717e-25
1.39582e-17
1.39667e-25
-1.68545e-25
1.39582e-17
1.66701e-25
-2.47653e-25
1.39582e-17
1.87072e-25
-3.03349e-25
1.39582e-17
1.81587e-25
-3.14808e-25
1.39582e-17
1.5835e-25
-2.25503e-25
1.39582e-17
1.16535e-25
-9.59448e-26
1.39582e-17
5.71393e-26
1.28287e-25
1.39582e-17
-4.37833e-26
5.41713e-25
1.39582e-17
-2.06939e-25
1.41122e-24
1.39582e-17
-4.6673e-25
2.95193e-24
1.39582e-17
-8.33159e-25
5.56514e-24
1.39582e-17
-1.36116e-24
9.66913e-24
1.39582e-17
-2.09713e-24
1.60995e-23
1.39582e-17
-3.11859e-24
2.61704e-23
1.39581e-17
-4.54618e-24
4.1668e-23
1.39581e-17
-6.49073e-24
6.59841e-23
1.3958e-17
-9.10104e-24
1.01195e-22
1.39578e-17
-1.3545e-23
1.4664e-22
1.39576e-17
-1.60679e-23
2.38928e-22
-9.55233e-24
2.9917e-22
1.95137e-17
-1.2665e-23
1.48968e-22
1.9514e-17
1.02182e-24
-3.209e-22
1.95141e-17
-8.96879e-24
-2.47407e-23
1.95142e-17
-2.81621e-24
-9.14324e-23
1.95143e-17
-2.16611e-24
-4.83056e-23
1.95143e-17
-1.51101e-24
-2.30258e-23
1.95143e-17
-1.0401e-24
-2.19916e-23
1.95143e-17
-7.77529e-25
-1.1775e-23
1.95144e-17
-4.63901e-25
-7.42735e-24
1.95144e-17
-1.91941e-25
-5.341e-24
1.95144e-17
-3.27587e-26
-2.93889e-24
1.95144e-17
9.8119e-26
-1.4381e-24
1.95144e-17
1.75253e-25
-6.60736e-25
1.95144e-17
2.23856e-25
-2.97435e-26
1.95144e-17
2.41373e-25
3.74691e-25
1.95144e-17
2.64876e-25
6.68286e-25
1.95144e-17
2.76e-25
8.41428e-25
1.95144e-17
2.89738e-25
9.93237e-25
1.95144e-17
2.90879e-25
1.03606e-24
1.95144e-17
2.93651e-25
1.04275e-24
1.95144e-17
2.84127e-25
9.92909e-25
1.95144e-17
2.76323e-25
9.55761e-25
1.95144e-17
2.62245e-25
9.06524e-25
1.95144e-17
2.51906e-25
8.61896e-25
1.95144e-17
2.41501e-25
8.00694e-25
1.95144e-17
2.30274e-25
7.37032e-25
1.95144e-17
2.13823e-25
6.85364e-25
1.95144e-17
1.90812e-25
6.5586e-25
1.95144e-17
1.66935e-25
6.23436e-25
1.95144e-17
1.44518e-25
5.84561e-25
1.95144e-17
1.25731e-25
5.32488e-25
1.95144e-17
1.0714e-25
4.82249e-25
1.95144e-17
8.88388e-26
4.2554e-25
1.95144e-17
6.99603e-26
3.8169e-25
1.95144e-17
5.31942e-26
3.41163e-25
1.95144e-17
3.88547e-26
3.13045e-25
1.95144e-17
3.17585e-26
2.76521e-25
1.95144e-17
2.38848e-26
2.55832e-25
1.95144e-17
1.31484e-26
2.372e-25
1.95144e-17
-1.46597e-27
2.30827e-25
1.95144e-17
-1.57326e-26
2.24682e-25
1.95144e-17
-2.07113e-26
2.17599e-25
1.95144e-17
-1.09964e-26
1.86745e-25
1.95144e-17
9.05344e-27
1.53275e-25
1.95144e-17
2.63507e-26
1.3712e-25
1.95144e-17
2.83623e-26
1.48039e-25
1.95144e-17
2.22721e-26
1.46656e-25
1.95144e-17
1.04519e-26
1.39297e-25
1.95144e-17
-2.21701e-27
1.2477e-25
1.95144e-17
-1.10667e-26
1.06174e-25
1.95144e-17
-1.2264e-26
7.3487e-26
1.95144e-17
-1.36748e-26
5.3898e-26
1.95144e-17
-1.61428e-26
3.41025e-26
1.95144e-17
-2.09105e-26
2.85239e-26
1.95144e-17
-2.38796e-26
3.34976e-26
1.95144e-17
-1.89413e-26
2.87618e-26
1.95144e-17
-3.56933e-27
-4.61379e-27
1.95144e-17
1.71115e-26
-5.21467e-26
1.95144e-17
3.34839e-26
-7.46655e-26
1.95144e-17
3.07289e-26
-5.23619e-26
1.95144e-17
1.82329e-26
-1.36778e-26
1.95144e-17
5.4469e-27
2.00788e-27
1.95144e-17
1.89857e-27
-3.17323e-26
1.95144e-17
7.16121e-28
-8.65268e-26
1.95144e-17
-2.87784e-28
-1.23028e-25
1.95144e-17
-1.06698e-26
-1.11813e-25
1.95144e-17
-2.4212e-26
-8.41356e-26
1.95144e-17
-3.29208e-26
-4.67402e-26
1.95144e-17
-3.59386e-26
-4.29724e-26
1.95144e-17
-2.89534e-26
-5.86566e-26
1.95144e-17
-2.04145e-26
-8.11917e-26
1.95144e-17
-9.4024e-27
-7.91852e-26
1.95144e-17
-5.44339e-28
-7.41559e-26
1.95144e-17
1.17927e-26
-5.16647e-26
1.95144e-17
2.22963e-26
-3.92643e-26
1.95144e-17
3.78151e-26
-2.08609e-26
1.95144e-17
5.23392e-26
-2.07442e-26
1.95144e-17
7.22175e-26
-1.40961e-26
1.95144e-17
9.39718e-26
-1.76512e-26
1.95144e-17
1.20582e-25
-2.58793e-26
1.95144e-17
1.48273e-25
-5.23971e-26
1.95144e-17
1.70392e-25
-9.43053e-26
1.95144e-17
1.83041e-25
-1.33894e-25
1.95144e-17
1.74095e-25
-1.33817e-25
1.95144e-17
1.50275e-25
-8.78859e-26
1.95144e-17
1.17874e-25
1.78928e-26
1.95144e-17
8.66731e-26
2.41717e-25
1.95144e-17
5.0706e-26
7.2678e-25
1.95144e-17
8.51776e-27
1.64856e-24
1.95144e-17
-2.0788e-26
3.30354e-24
1.95143e-17
-4.57115e-27
6.07647e-24
1.95143e-17
1.07498e-25
1.0537e-23
1.95143e-17
3.95067e-25
1.7635e-23
1.95143e-17
9.37001e-25
2.87939e-23
1.95142e-17
1.86441e-24
4.60742e-23
1.95141e-17
3.25946e-24
7.31202e-23
1.9514e-17
5.10165e-24
1.12595e-22
1.95138e-17
8.10227e-24
1.61324e-22
1.95135e-17
8.71542e-24
2.61955e-22
7.51806e-25
3.38006e-22
1.39578e-17
8.87784e-23
1.3958e-17
-2.43498e-22
1.39581e-17
-3.94949e-23
1.39581e-17
-8.00771e-23
1.39582e-17
-3.99114e-23
1.39582e-17
-2.03934e-23
1.39582e-17
-1.8794e-23
1.39582e-17
-1.00686e-23
1.39583e-17
-6.45504e-24
1.39583e-17
-4.59777e-24
1.39583e-17
-2.51052e-24
1.39583e-17
-1.25159e-24
1.39583e-17
-5.1926e-25
1.39583e-17
1.50154e-26
1.39583e-17
3.82737e-25
1.39583e-17
6.24029e-25
1.39583e-17
8.12742e-25
1.39583e-17
9.46332e-25
1.39583e-17
1.00963e-24
1.39583e-17
1.0095e-24
1.39583e-17
9.74237e-25
1.39583e-17
9.26738e-25
1.39583e-17
8.81911e-25
1.39583e-17
8.33497e-25
1.39583e-17
7.76348e-25
1.39583e-17
7.1596e-25
1.39583e-17
6.61699e-25
1.39583e-17
6.19063e-25
1.39583e-17
5.80475e-25
1.39583e-17
5.38329e-25
1.39583e-17
4.90891e-25
1.39583e-17
4.35537e-25
1.39583e-17
3.74455e-25
1.39583e-17
3.1773e-25
1.39583e-17
2.72445e-25
1.39583e-17
2.32564e-25
1.39583e-17
2.02958e-25
1.39583e-17
1.82501e-25
1.39583e-17
1.66226e-25
1.39583e-17
1.51177e-25
1.39583e-17
1.45412e-25
1.39583e-17
1.37226e-25
1.39583e-17
1.22442e-25
1.39583e-17
1.09769e-25
1.39583e-17
1.09164e-25
1.39583e-17
1.14131e-25
1.39583e-17
1.16665e-25
1.39583e-17
1.06773e-25
1.39583e-17
9.02729e-26
1.39583e-17
6.87791e-26
1.39583e-17
4.68564e-26
1.39583e-17
3.01644e-26
1.39583e-17
1.69587e-26
1.39583e-17
1.0316e-26
1.39583e-17
1.71144e-26
1.39583e-17
2.17425e-26
1.39583e-17
6.58223e-27
1.39583e-17
-1.69171e-26
1.39583e-17
-2.66442e-26
1.39583e-17
-9.84659e-27
1.39583e-17
2.19666e-26
1.39583e-17
3.08287e-26
1.39583e-17
-5.76482e-27
1.39583e-17
-6.14051e-26
1.39583e-17
-9.86202e-26
1.39583e-17
-1.02737e-25
1.39583e-17
-7.99579e-26
1.39583e-17
-5.56785e-26
1.39583e-17
-4.97352e-26
1.39583e-17
-6.17289e-26
1.39583e-17
-7.24017e-26
1.39583e-17
-7.26494e-26
1.39583e-17
-5.91108e-26
1.39583e-17
-3.71743e-26
1.39583e-17
-1.02748e-26
1.39583e-17
1.43688e-26
1.39583e-17
3.31364e-26
1.39583e-17
4.76161e-26
1.39583e-17
6.57008e-26
1.39583e-17
8.31336e-26
1.39583e-17
8.792e-26
1.39583e-17
7.38245e-26
1.39583e-17
5.15579e-26
1.39583e-17
4.01421e-26
1.39583e-17
5.58725e-26
1.39583e-17
1.10881e-25
1.39583e-17
2.71875e-25
1.39583e-17
6.10391e-25
1.39583e-17
1.29325e-24
1.39583e-17
2.58703e-24
1.39583e-17
4.84057e-24
1.39582e-17
8.55122e-24
1.39582e-17
1.45935e-23
1.39582e-17
2.42643e-23
1.39582e-17
3.9454e-23
1.39581e-17
6.34044e-23
1.3958e-17
9.81138e-23
1.39579e-17
1.43537e-22
1.39577e-17
2.34093e-22
2.95127e-22
1.47212e-17
-3.26151e-24
1.22736e-22
1.47215e-17
-5.3831e-23
-2.11658e-22
1.47215e-17
-1.67632e-23
-1.1003e-23
1.47216e-17
-2.42835e-23
-5.83188e-23
1.47216e-17
-1.56891e-23
-2.2482e-23
1.47217e-17
-1.09715e-23
-7.85517e-24
1.47217e-17
-8.65967e-24
-1.01349e-23
1.47217e-17
-5.54284e-24
-4.27454e-24
1.47217e-17
-3.84615e-24
-2.8214e-24
1.47217e-17
-2.58617e-24
-2.46352e-24
1.47217e-17
-1.55098e-24
-1.48729e-24
1.47217e-17
-8.47536e-25
-8.14537e-25
1.47217e-17
-3.32147e-25
-5.17119e-25
1.47217e-17
4.51459e-26
-1.97424e-25
1.47217e-17
2.96858e-25
2.19982e-28
1.47217e-17
4.72455e-25
1.2244e-25
1.47217e-17
5.82409e-25
1.63942e-25
1.47217e-17
6.48338e-25
2.05939e-25
1.47217e-17
6.83852e-25
2.29444e-25
1.47217e-17
6.96364e-25
2.27645e-25
1.47217e-17
6.89426e-25
2.21918e-25
1.47217e-17
6.63978e-25
2.08885e-25
1.47217e-17
6.22974e-25
2.11516e-25
1.47217e-17
5.70731e-25
2.18083e-25
1.47217e-17
5.10102e-25
2.29855e-25
1.47217e-17
4.56004e-25
2.29614e-25
1.47217e-17
4.01606e-25
2.237e-25
1.47217e-17
3.63298e-25
2.21323e-25
1.47217e-17
3.23272e-25
2.13105e-25
1.47217e-17
2.95051e-25
2.03826e-25
1.47217e-17
2.60288e-25
1.88233e-25
1.47217e-17
2.3403e-25
1.72974e-25
1.47217e-17
2.00106e-25
1.55501e-25
1.47217e-17
1.75242e-25
1.45365e-25
1.47217e-17
1.45234e-25
1.41379e-25
1.47217e-17
1.26519e-25
1.45264e-25
1.47217e-17
1.0464e-25
1.43474e-25
1.47217e-17
9.97831e-26
1.31714e-25
1.47217e-17
9.84817e-26
1.08228e-25
1.47217e-17
1.11027e-25
7.32224e-26
1.47217e-17
1.15534e-25
5.19422e-26
1.47217e-17
1.08257e-25
5.66024e-26
1.47217e-17
7.92925e-26
7.02247e-26
1.47217e-17
4.82437e-26
7.77662e-26
1.47217e-17
1.81328e-26
8.42765e-26
1.47217e-17
2.05438e-27
9.53531e-26
1.47217e-17
-1.65186e-26
1.05327e-25
1.47217e-17
-2.62127e-26
1.13571e-25
1.47217e-17
-3.99534e-26
1.17817e-25
1.47217e-17
-4.43429e-26
1.21125e-25
1.47217e-17
-5.01239e-26
1.13902e-25
1.47217e-17
-3.93671e-26
9.53797e-26
1.47217e-17
-2.3554e-26
6.15455e-26
1.47217e-17
5.03555e-27
1.88387e-26
1.47217e-17
2.93146e-26
-1.33474e-26
1.47217e-17
4.66986e-26
-1.86004e-26
1.47217e-17
4.26367e-26
-1.19414e-26
1.47217e-17
3.84997e-26
-2.1644e-26
1.47217e-17
3.6818e-26
-4.33012e-26
1.47217e-17
5.06732e-26
-6.44775e-26
1.47217e-17
5.66716e-26
-6.95334e-26
1.47217e-17
5.11022e-26
-4.6e-26
1.47217e-17
2.30797e-26
-2.01092e-26
1.47217e-17
-5.70406e-28
-1.32608e-26
1.47217e-17
-1.84248e-26
-2.03212e-26
1.47217e-17
-1.47577e-26
-3.03137e-26
1.47217e-17
-5.64728e-27
-3.96632e-26
1.47217e-17
6.43871e-27
-3.98411e-26
1.47217e-17
1.27556e-26
-3.62969e-26
1.47217e-17
1.54406e-26
-4.28698e-26
1.47217e-17
1.75694e-26
-4.52674e-26
1.47217e-17
2.05479e-26
-4.74111e-26
1.47217e-17
2.46655e-26
-3.73033e-26
1.47217e-17
3.18147e-26
-3.32539e-26
1.47217e-17
4.09453e-26
-2.30055e-26
1.47217e-17
5.06054e-26
-2.23172e-26
1.47217e-17
6.0478e-26
-2.07991e-26
1.47217e-17
7.02282e-26
-2.86395e-26
1.47217e-17
7.87165e-26
-3.35945e-26
1.47217e-17
8.72594e-26
-4.10259e-26
1.47217e-17
9.40674e-26
-5.45238e-26
1.47217e-17
1.14164e-25
-8.86179e-26
1.47217e-17
1.4394e-25
-1.383e-25
1.47217e-17
2.02759e-25
-1.96976e-25
1.47217e-17
2.78495e-25
-2.28997e-25
1.47217e-17
3.98235e-25
-2.0722e-25
1.47217e-17
5.71951e-25
-1.27546e-25
1.47217e-17
8.51023e-25
4.46019e-26
1.47217e-17
1.283e-24
4.09202e-25
1.47217e-17
1.94864e-24
1.13348e-24
1.47217e-17
2.93474e-24
2.41181e-24
1.47217e-17
4.39726e-24
4.59132e-24
1.47217e-17
6.4759e-24
8.22572e-24
1.47217e-17
9.40361e-24
1.42391e-23
1.47216e-17
1.3402e-23
2.40613e-23
1.47216e-17
1.88878e-23
4.05526e-23
1.47215e-17
2.61813e-23
6.62787e-23
1.47213e-17
3.46393e-23
1.01134e-22
1.47211e-17
5.00591e-23
1.83449e-22
6.03372e-23
2.48366e-22
2.48267e-17
-1.95903e-23
1.40161e-22
2.4827e-17
-7.45241e-23
-3.28577e-22
2.48271e-17
-4.0084e-23
-3.09478e-23
2.48272e-17
-3.9916e-23
-9.97905e-23
2.48273e-17
-2.7339e-23
-4.93242e-23
2.48273e-17
-1.92779e-23
-2.41404e-23
2.48274e-17
-1.46604e-23
-2.31802e-23
2.48274e-17
-9.717e-24
-1.23483e-23
2.48274e-17
-6.58203e-24
-7.89406e-24
2.48274e-17
-4.47286e-24
-6.10269e-24
2.48274e-17
-2.72533e-24
-3.52427e-24
2.48274e-17
-1.52703e-24
-2.1198e-24
2.48274e-17
-5.80122e-25
-1.10255e-24
2.48274e-17
4.169e-26
-4.93544e-25
2.48274e-17
5.13765e-25
2.98612e-26
2.48274e-17
7.92008e-25
2.49239e-25
2.48274e-17
9.77283e-25
4.95538e-25
2.48274e-17
1.07232e-24
6.23367e-25
2.48274e-17
1.13106e-24
7.03923e-25
2.48274e-17
1.13819e-24
7.28334e-25
2.48274e-17
1.11043e-24
7.25257e-25
2.48274e-17
1.0495e-24
7.10457e-25
2.48274e-17
9.64922e-25
6.90968e-25
2.48274e-17
8.56682e-25
6.81902e-25
2.48274e-17
7.43912e-25
6.61078e-25
2.48274e-17
6.31574e-25
6.31206e-25
2.48274e-17
5.4542e-25
5.91122e-25
2.48274e-17
4.61165e-25
5.60193e-25
2.48274e-17
4.02929e-25
5.27793e-25
2.48274e-17
3.39714e-25
4.91064e-25
2.48274e-17
2.95303e-25
4.49804e-25
2.48274e-17
2.39233e-25
4.06922e-25
2.48274e-17
1.97449e-25
3.66639e-25
2.48274e-17
1.4619e-25
3.35254e-25
2.48274e-17
1.10204e-25
3.12656e-25
2.48274e-17
6.76636e-26
3.00494e-25
2.48274e-17
4.72274e-26
2.78295e-25
2.48274e-17
3.39813e-26
2.57002e-25
2.48274e-17
4.6052e-26
2.27858e-25
2.48274e-17
5.70916e-26
2.01643e-25
2.48274e-17
6.9999e-26
1.88022e-25
2.48274e-17
5.83582e-26
1.878e-25
2.48274e-17
3.38656e-26
1.70792e-25
2.48274e-17
-3.30116e-27
1.49482e-25
2.48274e-17
-2.63468e-26
1.28609e-25
2.48274e-17
-4.93891e-26
1.29444e-25
2.48274e-17
-5.97077e-26
1.26764e-25
2.48274e-17
-7.66565e-26
1.29904e-25
2.48274e-17
-8.17828e-26
1.24559e-25
2.48274e-17
-9.23051e-26
1.23035e-25
2.48274e-17
-8.62226e-26
1.06706e-25
2.48274e-17
-7.59703e-26
8.63748e-26
2.48274e-17
-4.13075e-26
5.94822e-26
2.48274e-17
-1.0145e-26
3.32325e-26
2.48274e-17
3.02187e-26
2.36551e-26
2.48274e-17
4.85616e-26
2.96458e-26
2.48274e-17
6.00024e-26
1.63383e-26
2.48274e-17
5.57756e-26
-1.62601e-26
2.48274e-17
6.90545e-26
-4.80806e-26
2.48274e-17
7.91995e-26
-6.4754e-26
2.48274e-17
9.47378e-26
-5.26319e-26
2.48274e-17
7.73052e-26
-2.7245e-26
2.48274e-17
4.73076e-26
-2.01e-26
2.48274e-17
6.43566e-27
-3.88042e-26
2.48274e-17
-1.04251e-26
-5.31369e-26
2.48274e-17
-1.65559e-26
-6.36054e-26
2.48274e-17
1.49284e-27
-4.93405e-26
2.48274e-17
1.45289e-26
-4.02455e-26
2.48274e-17
2.89886e-26
-2.92246e-26
2.48274e-17
3.91675e-26
-3.55579e-26
2.48274e-17
5.32384e-26
-4.48482e-26
2.48274e-17
6.85671e-26
-4.79699e-26
2.48274e-17
8.87535e-26
-4.36129e-26
2.48274e-17
1.10698e-25
-3.49677e-26
2.48274e-17
1.36035e-25
-2.25672e-26
2.48274e-17
1.6066e-25
-1.37109e-26
2.48274e-17
1.87778e-25
-1.09321e-26
2.48274e-17
2.14314e-25
-1.51503e-26
2.48274e-17
2.43895e-25
-2.65611e-26
2.48274e-17
2.70271e-25
-3.99297e-26
2.48274e-17
3.05095e-25
-7.25551e-26
2.48274e-17
3.39401e-25
-1.05155e-25
2.48274e-17
4.04312e-25
-1.43378e-25
2.48274e-17
4.82968e-25
-1.45224e-25
2.48274e-17
6.05011e-25
-8.06005e-26
2.48274e-17
7.65957e-25
1.03853e-25
2.48274e-17
1.02592e-24
4.6603e-25
2.48274e-17
1.42445e-24
1.10433e-24
2.48274e-17
2.08648e-24
2.22814e-24
2.48274e-17
3.07011e-24
4.12486e-24
2.48274e-17
4.60392e-24
7.22819e-24
2.48274e-17
6.87028e-24
1.21024e-23
2.48274e-17
1.01865e-23
1.97212e-23
2.48273e-17
1.48836e-23
3.15145e-23
2.48273e-17
2.14759e-23
4.95769e-23
2.48272e-17
3.06627e-23
7.78608e-23
2.4827e-17
4.27748e-23
1.19054e-22
2.48268e-17
5.81767e-23
1.71481e-22
2.48265e-17
8.04598e-23
2.83411e-22
8.59844e-23
3.57576e-22
3.03167e-17
1.95098e-23
1.03222e-22
3.03171e-17
-7.7815e-23
-3.67372e-22
3.03172e-17
-2.37687e-23
-6.00237e-23
3.03173e-17
-3.38405e-23
-1.34668e-22
3.03174e-17
-2.10972e-23
-6.91816e-23
3.03175e-17
-1.36585e-23
-3.92426e-23
3.03175e-17
-1.15915e-23
-3.55584e-23
3.03175e-17
-7.4698e-24
-1.9785e-23
3.03175e-17
-5.24066e-24
-1.34244e-23
3.03175e-17
-3.72444e-24
-9.51878e-24
3.03175e-17
-2.44234e-24
-5.94012e-24
3.03175e-17
-1.33937e-24
-3.36851e-24
3.03175e-17
-5.5912e-25
-1.93268e-24
3.03175e-17
7.94949e-26
-7.05972e-25
3.03175e-17
5.19918e-25
-8.65604e-26
3.03175e-17
8.44886e-25
4.53892e-25
3.03175e-17
1.02621e-24
7.17666e-25
3.03175e-17
1.14912e-24
9.52441e-25
3.03175e-17
1.18799e-24
1.05393e-24
3.03175e-17
1.16993e-24
1.09169e-24
3.03175e-17
1.10286e-24
1.08857e-24
3.03175e-17
1.00388e-24
1.06703e-24
3.03175e-17
8.78057e-25
1.04045e-24
3.03175e-17
7.35854e-25
1.00453e-24
3.03175e-17
5.86672e-25
9.53061e-25
3.03175e-17
4.55862e-25
8.99629e-25
3.03175e-17
3.48256e-25
8.34062e-25
3.03175e-17
2.68188e-25
7.97568e-25
3.03175e-17
1.98806e-25
7.36476e-25
3.03175e-17
1.43665e-25
6.94838e-25
3.03175e-17
8.79459e-26
6.21007e-25
3.03175e-17
3.34625e-26
5.74224e-25
3.03175e-17
-2.3043e-26
5.04347e-25
3.03175e-17
-7.32975e-26
4.71357e-25
3.03175e-17
-1.15852e-25
4.25082e-25
3.03175e-17
-1.50906e-25
4.06084e-25
3.03175e-17
-1.70162e-25
3.59789e-25
3.03175e-17
-1.70221e-25
3.39404e-25
3.03175e-17
-1.51563e-25
3.01861e-25
3.03175e-17
-1.25553e-25
2.89817e-25
3.03175e-17
-1.01127e-25
2.69788e-25
3.03175e-17
-9.49553e-26
2.62408e-25
3.03175e-17
-1.10915e-25
2.27299e-25
3.03175e-17
-1.35286e-25
1.90812e-25
3.03175e-17
-1.48373e-25
1.59553e-25
3.03175e-17
-1.51887e-25
1.6113e-25
3.03175e-17
-1.48745e-25
1.5302e-25
3.03175e-17
-1.46958e-25
1.5696e-25
3.03175e-17
-1.43428e-25
1.43732e-25
3.03175e-17
-1.39919e-25
1.4278e-25
3.03175e-17
-1.29857e-25
1.11167e-25
3.03175e-17
-1.04995e-25
9.65751e-26
3.03175e-17
-6.76086e-26
6.21535e-26
3.03175e-17
-2.31189e-26
5.48224e-26
3.03175e-17
2.30324e-26
4.24636e-26
3.03175e-17
5.43859e-26
4.9455e-26
3.03175e-17
7.18553e-26
1.07954e-26
3.03175e-17
7.95915e-26
-3.01262e-26
3.03175e-17
9.17401e-26
-8.08051e-26
3.03175e-17
1.18112e-25
-7.26531e-26
3.03175e-17
1.37901e-25
-5.71341e-26
3.03175e-17
1.30092e-25
-2.35709e-26
3.03175e-17
9.19628e-26
-4.74706e-26
3.03175e-17
4.99521e-26
-7.25918e-26
3.03175e-17
2.24966e-26
-1.10223e-25
3.03175e-17
2.66715e-26
-8.39444e-26
3.03175e-17
4.44079e-26
-7.17376e-26
3.03175e-17
7.12664e-26
-3.66418e-26
3.03175e-17
8.95283e-26
-3.7966e-26
3.03175e-17
1.07743e-25
-5.173e-26
3.03175e-17
1.26521e-25
-6.71085e-26
3.03175e-17
1.53458e-25
-7.09674e-26
3.03175e-17
1.86177e-25
-6.71628e-26
3.03175e-17
2.24481e-25
-5.08569e-26
3.03175e-17
2.63793e-25
-3.4474e-26
3.03175e-17
3.0692e-25
-1.93747e-26
3.03175e-17
3.50934e-25
-1.33046e-26
3.03175e-17
4.00809e-25
-1.50428e-26
3.03175e-17
4.54099e-25
-2.41494e-26
3.03175e-17
5.12898e-25
-4.68219e-26
3.03175e-17
5.70621e-25
-7.98633e-26
3.03175e-17
6.30847e-25
-1.08888e-25
3.03175e-17
6.95787e-25
-1.21294e-25
3.03175e-17
7.7122e-25
-4.60087e-26
3.03175e-17
8.48379e-25
1.3395e-25
3.03175e-17
9.26805e-25
5.22603e-25
3.03175e-17
9.99617e-25
1.18302e-24
3.03175e-17
1.1177e-24
2.3566e-24
3.03175e-17
1.31732e-24
4.28171e-24
3.03175e-17
1.71016e-24
7.46263e-24
3.03175e-17
2.36549e-24
1.23882e-23
3.03175e-17
3.44882e-24
1.99636e-23
3.03175e-17
5.10316e-24
3.13272e-23
3.03174e-17
7.60811e-24
4.83242e-23
3.03174e-17
1.13578e-23
7.33216e-23
3.03173e-17
1.71586e-23
1.10343e-22
3.03171e-17
2.60236e-23
1.62115e-22
3.03169e-17
3.86145e-23
2.24503e-22
3.03166e-17
6.47673e-23
3.48399e-22
7.56299e-23
4.18238e-22
3.68597e-17
1.4172e-22
4.23874e-23
3.68601e-17
-4.88856e-23
-4.16637e-22
3.68602e-17
4.46997e-23
-1.03341e-22
3.68603e-17
6.96215e-24
-1.74427e-22
3.68604e-17
1.43954e-23
-9.55198e-23
3.68605e-17
1.31486e-23
-6.00561e-23
3.68605e-17
4.7107e-24
-5.05183e-23
3.68605e-17
3.1319e-24
-3.02965e-23
3.68605e-17
1.34279e-24
-2.02463e-23
3.68605e-17
-3.03398e-25
-1.42724e-23
3.68605e-17
-3.58155e-25
-8.67881e-24
3.68606e-17
-3.38661e-25
-5.14898e-24
3.68606e-17
4.30698e-26
-2.78922e-24
3.68606e-17
3.17012e-25
-1.30102e-24
3.68606e-17
7.1714e-25
-2.70247e-25
3.68606e-17
9.43092e-25
3.25682e-25
3.68606e-17
1.21588e-24
7.63087e-25
3.68606e-17
1.32261e-24
1.03268e-24
3.68606e-17
1.35376e-24
1.20989e-24
3.68606e-17
1.25149e-24
1.2787e-24
3.68606e-17
1.10874e-24
1.30336e-24
3.68606e-17
9.22047e-25
1.30993e-24
3.68606e-17
7.40236e-25
1.31309e-24
3.68606e-17
5.45105e-25
1.28716e-24
3.68606e-17
3.50851e-25
1.2579e-24
3.68606e-17
1.63624e-25
1.19769e-24
3.68606e-17
2.67905e-26
1.1761e-24
3.68606e-17
-6.17187e-26
1.11015e-24
3.68606e-17
-9.97783e-26
1.0911e-24
3.68606e-17
-1.53394e-25
1.00802e-24
3.68606e-17
-1.99171e-25
9.68665e-25
3.68606e-17
-2.73357e-25
8.69622e-25
3.68606e-17
-3.30993e-25
8.21979e-25
3.68606e-17
-3.9435e-25
7.30558e-25
3.68606e-17
-4.1971e-25
6.97943e-25
3.68606e-17
-4.45535e-25
6.21816e-25
3.68606e-17
-4.49938e-25
5.87822e-25
3.68606e-17
-4.44913e-25
5.16284e-25
3.68606e-17
-4.01125e-25
4.93258e-25
3.68606e-17
-3.50771e-25
4.36099e-25
3.68606e-17
-2.76193e-25
4.21961e-25
3.68606e-17
-2.33576e-25
3.76503e-25
3.68606e-17
-2.35425e-25
3.3759e-25
3.68606e-17
-2.7091e-25
2.72102e-25
3.68606e-17
-2.85298e-25
2.59093e-25
3.68606e-17
-2.66675e-25
2.26726e-25
3.68606e-17
-2.18908e-25
2.32137e-25
3.68606e-17
-1.82629e-25
1.89082e-25
3.68606e-17
-1.42952e-25
1.85809e-25
3.68606e-17
-1.28188e-25
1.35565e-25
3.68606e-17
-1.15301e-25
1.23872e-25
3.68606e-17
-1.07448e-25
7.47631e-26
3.68606e-17
-7.04843e-26
7.8166e-26
3.68606e-17
-2.96661e-26
4.68463e-26
3.68606e-17
4.04986e-26
6.65475e-26
3.68606e-17
8.19094e-26
5.36443e-26
3.68606e-17
8.37334e-26
4.2085e-26
3.68606e-17
3.89225e-26
-1.86556e-26
3.68606e-17
2.31773e-26
-2.62739e-26
3.68606e-17
5.09269e-26
-3.57224e-26
3.68606e-17
1.30456e-25
1.40241e-26
3.68606e-17
1.70927e-25
6.00985e-27
3.68606e-17
1.49364e-25
-2.75384e-26
3.68606e-17
7.01343e-26
-1.1352e-25
3.68606e-17
3.6277e-26
-1.3813e-25
3.68606e-17
4.7971e-26
-1.5911e-25
3.68606e-17
1.3144e-25
-1.26182e-25
3.68606e-17
2.03345e-25
-1.23744e-25
3.68606e-17
2.63136e-25
-1.31207e-25
3.68606e-17
2.76219e-25
-1.66971e-25
3.68606e-17
2.92519e-25
-1.94119e-25
3.68606e-17
3.17212e-25
-2.09269e-25
3.68606e-17
3.73069e-25
-2.04901e-25
3.68606e-17
4.34082e-25
-2.00001e-25
3.68606e-17
5.13953e-25
-1.90903e-25
3.68606e-17
5.89735e-25
-1.92581e-25
3.68606e-17
6.77762e-25
-1.96761e-25
3.68606e-17
7.62716e-25
-2.13534e-25
3.68606e-17
8.56668e-25
-2.28537e-25
3.68606e-17
9.46275e-25
-2.50757e-25
3.68606e-17
1.02162e-24
-2.65198e-25
3.68606e-17
1.07322e-24
-2.9614e-25
3.68606e-17
1.10942e-24
-2.49788e-25
3.68606e-17
1.13109e-24
-1.37992e-25
3.68606e-17
1.12428e-24
1.92171e-25
3.68606e-17
9.81675e-25
7.58164e-25
3.68606e-17
6.4721e-25
1.77542e-24
3.68606e-17
4.62512e-26
3.45059e-24
3.68605e-17
-7.77878e-25
6.29185e-24
3.68605e-17
-1.9054e-24
1.07473e-23
3.68605e-17
-3.40355e-24
1.7732e-23
3.68605e-17
-5.5395e-24
2.82294e-23
3.68605e-17
-8.48353e-24
4.38936e-23
3.68604e-17
-1.24594e-23
6.69166e-23
3.68604e-17
-1.76212e-23
1.00082e-22
3.68602e-17
-2.31177e-23
1.47851e-22
3.68601e-17
-2.84138e-23
2.12075e-22
3.68599e-17
-3.24556e-23
2.89087e-22
3.68595e-17
-8.23872e-24
4.24641e-22
2.64485e-23
4.8905e-22
5.49183e-17
2.08245e-23
-1.55601e-22
5.49185e-17
8.92336e-24
-4.62599e-22
5.49188e-17
1.70315e-23
-2.46904e-22
5.4919e-17
1.18961e-23
-2.37994e-22
5.49191e-17
1.14441e-23
-1.58536e-22
5.49193e-17
1.05227e-23
-1.03606e-22
5.49193e-17
6.368e-24
-7.65307e-23
5.49194e-17
4.29062e-24
-4.88611e-23
5.49194e-17
3.02264e-24
-3.16033e-23
5.49194e-17
2.30496e-24
-2.05247e-23
5.49194e-17
2.13849e-24
-1.20563e-23
5.49194e-17
2.24472e-24
-6.48475e-24
5.49194e-17
2.38474e-24
-2.90505e-24
5.49194e-17
2.57248e-24
-6.05916e-25
5.49194e-17
2.70562e-24
8.11491e-25
5.49194e-17
2.80037e-24
1.61745e-24
5.49194e-17
2.82187e-24
2.08611e-24
5.49194e-17
2.77818e-24
2.38732e-24
5.49194e-17
2.64757e-24
2.56192e-24
5.49194e-17
2.45261e-24
2.63741e-24
5.49194e-17
2.21789e-24
2.64975e-24
5.49194e-17
1.97204e-24
2.63766e-24
5.49194e-17
1.71885e-24
2.60415e-24
5.49194e-17
1.46533e-24
2.55515e-24
5.49194e-17
1.21353e-24
2.47836e-24
5.49194e-17
9.64728e-25
2.37425e-24
5.49194e-17
7.33596e-25
2.23389e-24
5.49194e-17
5.36253e-25
2.0808e-24
5.49194e-17
3.76935e-25
1.91501e-24
5.49194e-17
2.36454e-25
1.75557e-24
5.49194e-17
1.17943e-25
1.59764e-24
5.49194e-17
1.75863e-26
1.46306e-24
5.49194e-17
-5.55215e-26
1.34348e-24
5.49194e-17
-1.09026e-25
1.24665e-24
5.49194e-17
-1.39258e-25
1.16386e-24
5.49194e-17
-1.63308e-25
1.09553e-24
5.49194e-17
-1.78247e-25
1.01646e-24
5.49194e-17
-1.86599e-25
9.34637e-25
5.49194e-17
-1.7747e-25
8.41418e-25
5.49194e-17
-1.57115e-25
7.50209e-25
5.49194e-17
-1.27456e-25
6.66947e-25
5.49194e-17
-1.01938e-25
6.07741e-25
5.49194e-17
-8.95278e-26
5.69919e-25
5.49194e-17
-9.01428e-26
5.52181e-25
5.49194e-17
-8.91834e-26
5.3085e-25
5.49194e-17
-8.26072e-26
5.03039e-25
5.49194e-17
-6.51681e-26
4.48898e-25
5.49194e-17
-4.97547e-26
3.87513e-25
5.49194e-17
-3.58935e-26
3.17784e-25
5.49194e-17
-3.50313e-26
2.55601e-25
5.49194e-17
-3.96992e-26
1.90369e-25
5.49194e-17
-4.76874e-26
1.36368e-25
5.49194e-17
-4.5434e-26
7.54082e-26
5.49194e-17
-3.32565e-26
2.1203e-26
5.49194e-17
-1.33046e-26
-2.24423e-26
5.49194e-17
-2.7683e-27
-4.97615e-26
5.49194e-17
-1.5726e-26
-6.62801e-26
5.49194e-17
-4.7115e-26
-7.76375e-26
5.49194e-17
-7.57002e-26
-1.02705e-25
5.49194e-17
-8.3359e-26
-1.24755e-25
5.49194e-17
-6.21925e-26
-1.48797e-25
5.49194e-17
-3.85493e-26
-1.79057e-25
5.49194e-17
-2.79647e-26
-2.03447e-25
5.49194e-17
-3.42306e-26
-2.2482e-25
5.49194e-17
-3.29591e-26
-2.54458e-25
5.49194e-17
-3.2193e-27
-2.86321e-25
5.49194e-17
5.48665e-26
-3.1862e-25
5.49194e-17
1.1995e-25
-3.40842e-25
5.49194e-17
1.80269e-25
-3.48674e-25
5.49194e-17
2.35724e-25
-3.40452e-25
5.49194e-17
2.95598e-25
-3.14443e-25
5.49194e-17
3.71883e-25
-2.68647e-25
5.49194e-17
4.63478e-25
-2.20774e-25
5.49194e-17
5.70531e-25
-1.74146e-25
5.49194e-17
6.86913e-25
-1.38037e-25
5.49194e-17
8.17577e-25
-1.13361e-25
5.49194e-17
9.49596e-25
-1.01444e-25
5.49194e-17
1.08168e-24
-1.0071e-25
5.49194e-17
1.19841e-24
-1.17896e-25
5.49194e-17
1.29018e-24
-1.4908e-25
5.49194e-17
1.34492e-24
-2.01258e-25
5.49194e-17
1.35493e-24
-2.52985e-25
5.49194e-17
1.30551e-24
-2.78203e-25
5.49194e-17
1.19161e-24
-1.78716e-25
5.49194e-17
9.72929e-25
1.64876e-25
5.49194e-17
5.90187e-25
9.21555e-25
5.49194e-17
-3.33163e-26
2.32396e-24
5.49194e-17
-9.28385e-25
4.77475e-24
5.49194e-17
-2.11881e-24
8.86163e-24
5.49194e-17
-3.59536e-24
1.54777e-23
5.49194e-17
-5.45226e-24
2.58602e-23
5.49193e-17
-7.79409e-24
4.17146e-23
5.49193e-17
-1.07299e-23
6.54974e-23
5.49192e-17
-1.43081e-23
1.00562e-22
5.49191e-17
-1.84052e-23
1.51258e-22
5.49189e-17
-2.26958e-23
2.23097e-22
5.49187e-17
-2.66273e-23
3.19569e-22
5.49184e-17
-2.91328e-23
4.40618e-22
5.49181e-17
-2.09271e-23
6.03616e-22
-1.02828e-23
6.49743e-22
6.03389e-17
-9.41142e-24
-1.92109e-22
6.03392e-17
1.38027e-23
-4.97912e-22
6.03395e-17
7.58631e-24
-2.71961e-22
6.03397e-17
1.31341e-23
-2.61955e-22
6.03398e-17
1.04026e-23
-1.75447e-22
6.034e-17
6.56741e-24
-1.14087e-22
6.034e-17
5.58137e-24
-8.37183e-23
6.03401e-17
3.65036e-24
-5.33192e-23
6.03401e-17
2.72414e-24
-3.40498e-23
6.03401e-17
2.59107e-24
-2.16583e-23
6.03401e-17
2.62936e-24
-1.24199e-23
6.03401e-17
2.81296e-24
-6.32483e-24
6.03401e-17
2.9629e-24
-2.44657e-24
6.03401e-17
3.10484e-24
1.28961e-25
6.03401e-17
3.1918e-24
1.70804e-24
6.03401e-17
3.22887e-24
2.62839e-24
6.03401e-17
3.20482e-24
3.14428e-24
6.03401e-17
3.11927e-24
3.44213e-24
6.03401e-17
2.97517e-24
3.58579e-24
6.03401e-17
2.7743e-24
3.61832e-24
6.03401e-17
2.54567e-24
3.58737e-24
6.03401e-17
2.30148e-24
3.51489e-24
6.03401e-17
2.04696e-24
3.42196e-24
6.03401e-17
1.78992e-24
3.30066e-24
6.03401e-17
1.53003e-24
3.14926e-24
6.03401e-17
1.27213e-24
2.9601e-24
6.03401e-17
1.02366e-24
2.74318e-24
6.03401e-17
8.01476e-25
2.50613e-24
6.03401e-17
6.06417e-25
2.2609e-24
6.03401e-17
4.39065e-25
2.01851e-24
6.03401e-17
2.97346e-25
1.8022e-24
6.03401e-17
1.87461e-25
1.62301e-24
6.03401e-17
1.06273e-25