/*--------------------------------*- C++ -*----------------------------------*\
| =========                 |                                                 |
| \\      /  F ield         | OpenFOAM: The Open Source CFD Toolbox           |
|  \\    /   O peration     | Version:  2412                                  |
|   \\  /    A nd           | Website:  www.openfoam.com                      |
|    \\/     M anipulation  |                                                 |
\*---------------------------------------------------------------------------*/
FoamFile
{
    version     2.0;
    format      ascii;
    arch        "LSB;label=32;scalar=64";
    class       volVectorField;
    location    "100";
    object      U;
}
// * * * * * * * * * * * * * * * * * * * * * * * * * * * * * * * * * * * * * //

dimensions      [0 1 -1 0 0 0 0];

internalField   nonuniform List<vector> 
40500
(
(1.45333e-05 3.11186e-11 1.85427e-10)
(1.45333e-05 1.22172e-11 -1.42162e-10)
(1.45335e-05 2.08803e-11 4.27347e-11)
(1.45336e-05 1.11827e-11 -2.40115e-11)
(1.45337e-05 8.10158e-12 -2.67636e-12)
(1.45337e-05 4.59865e-12 3.01646e-12)
(1.45337e-05 2.64728e-12 -3.15523e-12)
(1.45337e-05 1.37956e-12 -4.13265e-13)
(1.45337e-05 5.42947e-13 -1.90427e-13)
(1.45337e-05 1.58241e-13 -6.24466e-13)
(1.45337e-05 -3.38435e-14 -2.36618e-13)
(1.45337e-05 -1.70636e-13 -8.42891e-14)
(1.45337e-05 -2.02464e-13 -1.8905e-14)
(1.45337e-05 -1.89501e-13 8.61857e-14)
(1.45338e-05 -1.59801e-13 2.14673e-13)
(1.45338e-05 -1.11477e-13 2.81823e-13)
(1.45337e-05 -6.17592e-14 3.41139e-13)
(1.45337e-05 -2.23103e-14 3.59604e-13)
(1.45337e-05 8.39564e-15 3.68316e-13)
(1.45337e-05 3.13745e-14 3.51767e-13)
(1.45337e-05 4.85369e-14 3.48707e-13)
(1.45337e-05 5.67837e-14 3.41337e-13)
(1.45337e-05 6.05033e-14 3.41951e-13)
(1.45337e-05 6.26087e-14 3.39327e-13)
(1.45337e-05 7.03844e-14 3.2788e-13)
(1.45337e-05 8.20175e-14 3.28584e-13)
(1.45337e-05 9.25941e-14 3.11458e-13)
(1.45337e-05 9.69083e-14 3.14219e-13)
(1.45337e-05 9.09141e-14 2.8041e-13)
(1.45337e-05 8.30886e-14 2.62507e-13)
(1.45337e-05 7.32916e-14 2.18029e-13)
(1.45337e-05 6.48603e-14 2.00953e-13)
(1.45337e-05 4.89984e-14 1.67682e-13)
(1.45337e-05 3.07143e-14 1.56777e-13)
(1.45337e-05 8.44233e-15 1.32171e-13)
(1.45337e-05 -5.55252e-15 1.40577e-13)
(1.45337e-05 -1.19803e-14 1.20757e-13)
(1.45337e-05 -1.20692e-14 1.28643e-13)
(1.45337e-05 -1.96325e-14 1.09346e-13)
(1.45337e-05 -3.14943e-14 1.09694e-13)
(1.45337e-05 -5.10736e-14 9.32011e-14)
(1.45337e-05 -6.33675e-14 8.37309e-14)
(1.45338e-05 -5.64663e-14 5.91139e-14)
(1.45338e-05 -3.15932e-14 5.49086e-14)
(1.45338e-05 -8.91756e-15 4.57668e-14)
(1.45338e-05 1.0175e-15 7.33592e-14)
(1.45338e-05 -9.6041e-15 5.84234e-14)
(1.45338e-05 -2.52494e-14 6.11787e-14)
(1.45338e-05 -4.22974e-14 4.24455e-14)
(1.45338e-05 -4.74251e-14 4.6081e-14)
(1.45338e-05 -4.5135e-14 2.16373e-14)
(1.45338e-05 -3.27566e-14 2.85531e-14)
(1.45338e-05 -2.75281e-14 8.55626e-15)
(1.45338e-05 -2.20536e-14 1.24891e-14)
(1.45338e-05 -2.28561e-14 -3.95174e-15)
(1.45338e-05 -1.37011e-14 -1.31836e-14)
(1.45338e-05 1.05474e-14 -3.64123e-14)
(1.45338e-05 4.83031e-14 -4.38815e-14)
(1.45338e-05 8.16157e-14 -4.84321e-14)
(1.45338e-05 9.21083e-14 -2.2057e-14)
(1.45338e-05 7.35328e-14 -2.46752e-14)
(1.45338e-05 4.85441e-14 -2.78259e-14)
(1.45338e-05 3.4209e-14 -5.16939e-14)
(1.45338e-05 3.37732e-14 -5.61235e-14)
(1.45338e-05 2.96684e-14 -5.23844e-14)
(1.45338e-05 1.71411e-14 -2.56553e-14)
(1.45338e-05 -3.78814e-15 -1.7489e-14)
(1.45338e-05 -2.28071e-14 -1.61666e-14)
(1.45338e-05 -3.55481e-14 -2.58103e-14)
(1.45338e-05 -3.75502e-14 -4.27791e-14)
(1.45338e-05 -3.46141e-14 -4.82008e-14)
(1.45338e-05 -3.32422e-14 -5.01002e-14)
(1.45338e-05 -3.37838e-14 -4.57176e-14)
(1.45338e-05 -3.56637e-14 -4.66831e-14)
(1.45338e-05 -3.67779e-14 -4.27777e-14)
(1.45338e-05 -3.59685e-14 -4.63698e-14)
(1.45338e-05 -2.97368e-14 -5.00225e-14)
(1.45337e-05 -1.69596e-14 -5.50508e-14)
(1.45337e-05 5.20534e-15 -7.1484e-14)
(1.45337e-05 3.59962e-14 -8.74983e-14)
(1.45337e-05 7.65357e-14 -1.13667e-13)
(1.45337e-05 1.20328e-13 -1.23906e-13)
(1.45337e-05 1.54184e-13 -1.44679e-13)
(1.45337e-05 1.68983e-13 -1.32942e-13)
(1.45337e-05 1.50212e-13 -1.45651e-13)
(1.45337e-05 1.12776e-13 -1.6551e-13)
(1.45337e-05 5.05491e-14 -2.03824e-13)
(1.45337e-05 -4.41212e-14 -1.74213e-13)
(1.45337e-05 -2.25606e-13 -1.04351e-13)
(1.45337e-05 -5.38103e-13 5.6781e-14)
(1.45337e-05 -1.04197e-12 2.93846e-13)
(1.45337e-05 -1.80728e-12 6.78879e-13)
(1.45337e-05 -2.9501e-12 1.27336e-12)
(1.45337e-05 -4.66018e-12 2.29213e-12)
(1.45337e-05 -7.24459e-12 3.95006e-12)
(1.45336e-05 -1.09853e-11 7.45871e-12)
(1.45335e-05 -1.59832e-11 1.32365e-11)
(1.45334e-05 -2.52079e-11 1.56299e-11)
(1.45332e-05 -3.47822e-11 4.49509e-11)
(1.45329e-05 -2.25972e-11 9.43306e-11)
(2.03183e-05 4.09061e-12 2.38496e-10)
(2.03184e-05 1.4746e-12 -1.8426e-10)
(2.03187e-05 3.4218e-12 6.67486e-11)
(2.03188e-05 2.52401e-12 -2.39185e-11)
(2.03189e-05 2.15258e-12 -2.0916e-12)
(2.03189e-05 1.54997e-12 5.54987e-12)
(2.03189e-05 7.80702e-13 -2.62078e-12)
(2.0319e-05 3.62624e-13 4.69744e-13)
(2.0319e-05 2.08193e-13 4.39188e-13)
(2.0319e-05 1.67594e-13 -3.04677e-13)
(2.0319e-05 2.00853e-13 1.04518e-14)
(2.0319e-05 2.35207e-13 1.34937e-13)
(2.0319e-05 2.84679e-13 1.20376e-13)
(2.0319e-05 2.86792e-13 2.27634e-13)
(2.0319e-05 2.88193e-13 3.4756e-13)
(2.0319e-05 3.02207e-13 4.25501e-13)
(2.0319e-05 3.26705e-13 4.54697e-13)
(2.0319e-05 3.40276e-13 4.72375e-13)
(2.0319e-05 3.46146e-13 4.58851e-13)
(2.0319e-05 3.44099e-13 4.49087e-13)
(2.0319e-05 3.33553e-13 4.34435e-13)
(2.0319e-05 3.19597e-13 4.2904e-13)
(2.0319e-05 3.05128e-13 4.21935e-13)
(2.0319e-05 2.91013e-13 4.16372e-13)
(2.0319e-05 2.80219e-13 4.10525e-13)
(2.0319e-05 2.6413e-13 4.06112e-13)
(2.0319e-05 2.47084e-13 4.07677e-13)
(2.0319e-05 2.19251e-13 3.96287e-13)
(2.0319e-05 1.97312e-13 3.66726e-13)
(2.0319e-05 1.69106e-13 3.29009e-13)
(2.0319e-05 1.50417e-13 2.9185e-13)
(2.0319e-05 1.25731e-13 2.61086e-13)
(2.0319e-05 1.07475e-13 2.36264e-13)
(2.0319e-05 8.33502e-14 2.13161e-13)
(2.0319e-05 6.68222e-14 1.87547e-13)
(2.0319e-05 4.79627e-14 1.76462e-13)
(2.0319e-05 4.11779e-14 1.69206e-13)
(2.0319e-05 2.91883e-14 1.64321e-13)
(2.0319e-05 1.92937e-14 1.50002e-13)
(2.0319e-05 9.27515e-16 1.28152e-13)
(2.0319e-05 -1.21553e-14 1.02966e-13)
(2.0319e-05 -1.86777e-14 8.14056e-14)
(2.0319e-05 -6.33865e-15 7.07993e-14)
(2.0319e-05 1.37331e-14 7.65894e-14)
(2.0319e-05 3.46014e-14 9.62377e-14)
(2.0319e-05 3.56728e-14 1.11819e-13)
(2.0319e-05 3.11189e-14 9.67055e-14)
(2.0319e-05 1.42577e-14 6.99498e-14)
(2.0319e-05 1.49391e-15 4.88811e-14)
(2.0319e-05 -1.11635e-14 3.62014e-14)
(2.0319e-05 -1.10806e-14 2.84115e-14)
(2.0319e-05 -1.62799e-14 2.60602e-14)
(2.0319e-05 -1.74407e-14 1.72923e-14)
(2.0319e-05 -2.5306e-14 2.90441e-15)
(2.0319e-05 -2.59643e-14 -1.45599e-14)
(2.0319e-05 -2.11546e-14 -3.3827e-14)
(2.0319e-05 -3.94524e-15 -3.93178e-14)
(2.0319e-05 1.39107e-14 -2.97497e-14)
(2.0319e-05 3.34367e-14 -8.40588e-15)
(2.0319e-05 2.86297e-14 -1.5822e-15)
(2.0319e-05 1.7519e-14 -1.90503e-14)
(2.0319e-05 5.50617e-15 -4.48894e-14)
(2.0319e-05 2.29867e-15 -6.33322e-14)
(2.0319e-05 -1.21826e-15 -5.9444e-14)
(2.0319e-05 -6.07188e-16 -3.97435e-14)
(2.0319e-05 -1.33591e-14 -2.81537e-14)
(2.0319e-05 -2.18787e-14 -3.3772e-14)
(2.0319e-05 -2.87178e-14 -4.49722e-14)
(2.0319e-05 -2.93632e-14 -6.21018e-14)
(2.0319e-05 -2.39145e-14 -7.22667e-14)
(2.0319e-05 -1.46011e-14 -7.51615e-14)
(2.0319e-05 -3.76598e-15 -6.9489e-14)
(2.0319e-05 8.31305e-15 -6.66099e-14)
(2.0319e-05 2.1225e-14 -6.25889e-14)
(2.0319e-05 3.56152e-14 -5.94979e-14)
(2.0319e-05 5.21172e-14 -5.54663e-14)
(2.0319e-05 7.12052e-14 -5.6191e-14)
(2.0319e-05 9.30417e-14 -5.17884e-14)
(2.0319e-05 1.20522e-13 -5.65924e-14)
(2.0319e-05 1.51096e-13 -5.88559e-14)
(2.0319e-05 1.86081e-13 -6.06853e-14)
(2.0319e-05 2.10004e-13 -6.33942e-14)
(2.0319e-05 2.28731e-13 -6.45155e-14)
(2.0319e-05 2.15156e-13 -7.5639e-14)
(2.0319e-05 1.89062e-13 -1.07735e-13)
(2.0319e-05 1.43533e-13 -1.6552e-13)
(2.0319e-05 8.91591e-14 -2.2143e-13)
(2.0319e-05 -2.4342e-15 -2.31467e-13)
(2.0319e-05 -1.32072e-13 -2.26468e-13)
(2.0319e-05 -3.11328e-13 -2.09921e-13)
(2.0319e-05 -5.19933e-13 -1.69002e-13)
(2.0319e-05 -7.6575e-13 -1.11577e-13)
(2.0319e-05 -1.02739e-12 7.90351e-14)
(2.03189e-05 -1.30708e-12 5.50454e-13)
(2.03189e-05 -1.60723e-12 1.50508e-12)
(2.03188e-05 -1.9506e-12 4.20676e-12)
(2.03187e-05 -2.48037e-12 9.12734e-12)
(2.03186e-05 -3.53867e-12 7.61674e-12)
(2.03183e-05 -4.80378e-12 4.02656e-11)
(2.03179e-05 -5.45855e-12 1.12308e-10)
(1.45333e-05 -2.77764e-11 1.84694e-10)
(1.45334e-05 -1.11144e-11 -1.40416e-10)
(1.45336e-05 -1.92078e-11 4.30321e-11)
(1.45336e-05 -1.04094e-11 -2.33937e-11)
(1.45337e-05 -7.75708e-12 -2.08924e-12)
(1.45337e-05 -4.68013e-12 3.64903e-12)
(1.45338e-05 -3.08385e-12 -2.64203e-12)
(1.45338e-05 -1.93891e-12 1.86705e-13)
(1.45338e-05 -1.05155e-12 1.88074e-13)
(1.45338e-05 -5.43967e-13 -3.50098e-13)
(1.45338e-05 -2.55092e-13 -6.2284e-14)
(1.45338e-05 -5.63683e-14 4.13526e-14)
(1.45338e-05 5.47118e-14 4.24721e-14)
(1.45338e-05 1.43447e-13 1.17775e-13)
(1.45338e-05 1.89938e-13 2.20786e-13)
(1.45338e-05 2.05292e-13 2.80032e-13)
(1.45338e-05 2.0224e-13 3.19497e-13)
(1.45338e-05 1.99803e-13 3.42032e-13)
(1.45338e-05 1.94196e-13 3.44007e-13)
(1.45338e-05 1.89281e-13 3.34114e-13)
(1.45338e-05 1.78962e-13 3.18397e-13)
(1.45338e-05 1.67741e-13 3.04903e-13)
(1.45338e-05 1.54733e-13 2.94964e-13)
(1.45338e-05 1.46933e-13 2.89941e-13)
(1.45338e-05 1.43306e-13 2.88514e-13)
(1.45338e-05 1.42214e-13 2.87018e-13)
(1.45338e-05 1.38121e-13 2.86886e-13)
(1.45338e-05 1.29304e-13 2.77225e-13)
(1.45338e-05 1.16277e-13 2.60356e-13)
(1.45338e-05 1.03933e-13 2.3539e-13)
(1.45338e-05 8.9877e-14 2.10377e-13)
(1.45338e-05 7.35149e-14 1.8543e-13)
(1.45338e-05 5.27268e-14 1.59882e-13)
(1.45338e-05 3.04937e-14 1.37341e-13)
(1.45338e-05 8.44722e-15 1.15296e-13)
(1.45338e-05 -8.00791e-15 9.79442e-14)
(1.45338e-05 -1.85052e-14 9.39294e-14)
(1.45338e-05 -2.71387e-14 8.94909e-14)
(1.45338e-05 -3.9931e-14 8.12843e-14)
(1.45338e-05 -5.59233e-14 6.47876e-14)
(1.45338e-05 -7.0121e-14 4.85759e-14)
(1.45338e-05 -6.99892e-14 3.15927e-14)
(1.45338e-05 -5.67135e-14 2.9221e-14)
(1.45338e-05 -3.15048e-14 4.24974e-14)
(1.45338e-05 -5.91596e-15 6.57166e-14)
(1.45338e-05 8.32196e-15 7.81101e-14)
(1.45338e-05 8.62711e-15 7.3089e-14)
(1.45338e-05 -1.11281e-16 5.23524e-14)
(1.45338e-05 -1.29296e-14 3.43927e-14)
(1.45338e-05 -2.09248e-14 2.05982e-14)
(1.45338e-05 -2.23915e-14 1.73145e-14)
(1.45338e-05 -2.19321e-14 1.49534e-14)
(1.45338e-05 -2.3335e-14 9.87227e-15)
(1.45338e-05 -2.57175e-14 -2.04195e-15)
(1.45338e-05 -2.51891e-14 -9.63807e-15)
(1.45338e-05 -1.20768e-14 -2.05433e-14)
(1.45338e-05 1.45225e-14 -2.03454e-14)
(1.45338e-05 4.92566e-14 -6.52756e-15)
(1.45338e-05 7.44635e-14 1.63225e-14)
(1.45338e-05 7.94653e-14 2.51225e-14)
(1.45338e-05 7.08495e-14 1.76244e-14)
(1.45338e-05 5.72821e-14 -5.55526e-15)
(1.45338e-05 4.62673e-14 -2.68059e-14)
(1.45338e-05 3.55947e-14 -3.42976e-14)
(1.45338e-05 2.37146e-14 -2.80706e-14)
(1.45338e-05 4.61673e-15 -2.53247e-14)
(1.45338e-05 -1.98329e-14 -2.77512e-14)
(1.45338e-05 -3.93377e-14 -3.5935e-14)
(1.45338e-05 -4.75242e-14 -4.67631e-14)
(1.45338e-05 -4.51676e-14 -5.76744e-14)
(1.45338e-05 -3.84576e-14 -6.41501e-14)
(1.45338e-05 -2.92384e-14 -6.26522e-14)
(1.45338e-05 -2.04073e-14 -5.91518e-14)
(1.45338e-05 -1.05092e-14 -5.35997e-14)
(1.45338e-05 -1.17985e-15 -4.8267e-14)
(1.45338e-05 1.12243e-14 -4.01086e-14)
(1.45338e-05 2.53222e-14 -3.54869e-14)
(1.45338e-05 4.57625e-14 -2.83809e-14)
(1.45338e-05 7.26031e-14 -1.8219e-14)
(1.45338e-05 1.06154e-13 -3.86355e-15)
(1.45338e-05 1.40601e-13 1.17992e-14)
(1.45338e-05 1.66638e-13 2.35397e-14)
(1.45338e-05 1.71987e-13 3.15094e-14)
(1.45338e-05 1.49746e-13 2.73135e-14)
(1.45338e-05 1.05026e-13 8.03892e-15)
(1.45338e-05 5.06486e-14 -3.84659e-14)
(1.45338e-05 -8.46697e-15 -7.46541e-14)
(1.45338e-05 -6.34214e-14 -1.07228e-13)
(1.45338e-05 -1.24233e-13 -1.23377e-13)
(1.45338e-05 -1.64981e-13 -1.06532e-13)
(1.45338e-05 -1.27061e-13 -4.39786e-14)
(1.45338e-05 8.5584e-14 7.42444e-14)
(1.45338e-05 6.11942e-13 4.27531e-13)
(1.45338e-05 1.65505e-12 1.20064e-12)
(1.45337e-05 3.55433e-12 2.66816e-12)
(1.45337e-05 6.59511e-12 5.86471e-12)
(1.45336e-05 1.08368e-11 1.1443e-11)
(1.45335e-05 1.91502e-11 1.41559e-11)
(1.45333e-05 2.75408e-11 4.34586e-11)
(1.4533e-05 1.40802e-11 9.25921e-11)
(1.53282e-05 8.8087e-12 1.99489e-10)
(1.53283e-05 -2.29043e-11 -1.29959e-10)
(1.53285e-05 3.5719e-12 5.3153e-11)
(1.53286e-05 -8.92746e-12 -1.66475e-11)
(1.53286e-05 -4.6135e-12 3.29907e-12)
(1.53287e-05 -4.16885e-12 7.65452e-12)
(1.53287e-05 -3.81341e-12 6.21076e-14)
(1.53287e-05 -2.52994e-12 2.04187e-12)
(1.53287e-05 -2.02173e-12 1.39714e-12)
(1.53287e-05 -1.48623e-12 4.41505e-13)
(1.53287e-05 -9.4303e-13 3.77155e-13)
(1.53287e-05 -6.13147e-13 3.14957e-13)
(1.53287e-05 -3.54467e-13 1.47579e-13)
(1.53287e-05 -1.55706e-13 1.07022e-13)
(1.53287e-05 3.64184e-15 1.06873e-13)
(1.53287e-05 1.44548e-13 1.04911e-13)
(1.53287e-05 2.65017e-13 1.42572e-13)
(1.53287e-05 3.65256e-13 1.50057e-13)
(1.53287e-05 4.29844e-13 1.35871e-13)
(1.53287e-05 4.70861e-13 1.27104e-13)
(1.53287e-05 4.88299e-13 1.17219e-13)
(1.53287e-05 4.87424e-13 1.12666e-13)
(1.53287e-05 4.68826e-13 1.12595e-13)
(1.53287e-05 4.35932e-13 1.21909e-13)
(1.53287e-05 3.9201e-13 1.33755e-13)
(1.53287e-05 3.49601e-13 1.41804e-13)
(1.53287e-05 3.07055e-13 1.50651e-13)
(1.53287e-05 2.78215e-13 1.55694e-13)
(1.53287e-05 2.49474e-13 1.52854e-13)
(1.53287e-05 2.29906e-13 1.42852e-13)
(1.53287e-05 2.05156e-13 1.3367e-13)
(1.53287e-05 1.86337e-13 1.22031e-13)
(1.53287e-05 1.6099e-13 1.15214e-13)
(1.53287e-05 1.41755e-13 1.05775e-13)
(1.53287e-05 1.17556e-13 1.03465e-13)
(1.53287e-05 1.01921e-13 9.69025e-14)
(1.53287e-05 8.40327e-14 9.51604e-14)
(1.53287e-05 8.21984e-14 8.47743e-14)
(1.53287e-05 8.67795e-14 7.112e-14)
(1.53287e-05 1.08896e-13 4.8973e-14)
(1.53287e-05 1.2468e-13 3.45729e-14)
(1.53287e-05 1.24134e-13 2.52434e-14)
(1.53287e-05 9.70544e-14 1.83256e-14)
(1.53287e-05 6.49269e-14 1.62667e-14)
(1.53287e-05 3.05676e-14 2.23409e-14)
(1.53287e-05 7.97377e-15 3.00063e-14)
(1.53287e-05 -1.40452e-14 3.39306e-14)
(1.53287e-05 -2.56811e-14 3.19821e-14)
(1.53287e-05 -3.94358e-14 3.24294e-14)
(1.53287e-05 -4.5459e-14 2.82736e-14)
(1.53287e-05 -5.13315e-14 2.66333e-14)
(1.53287e-05 -4.26565e-14 1.91578e-14)
(1.53287e-05 -2.40185e-14 9.59537e-15)
(1.53287e-05 1.07125e-14 -8.22042e-15)
(1.53287e-05 4.05666e-14 -1.92666e-14)
(1.53287e-05 5.90175e-14 -2.08206e-14)
(1.53287e-05 5.27041e-14 -2.41143e-14)
(1.53287e-05 4.45485e-14 -2.76554e-14)
(1.53287e-05 3.90297e-14 -2.38529e-14)
(1.53287e-05 5.03363e-14 -2.69335e-14)
(1.53287e-05 5.85596e-14 -2.75634e-14)
(1.53287e-05 5.54456e-14 -2.38319e-14)
(1.53287e-05 2.78907e-14 -2.41783e-14)
(1.53287e-05 -1.3619e-15 -1.84759e-14)
(1.53287e-05 -2.33564e-14 -5.6007e-15)
(1.53287e-05 -2.32622e-14 -6.80128e-15)
(1.53287e-05 -1.01686e-14 -9.77432e-15)
(1.53287e-05 6.51112e-15 -1.95848e-14)
(1.53287e-05 1.6643e-14 -3.26109e-14)
(1.53287e-05 1.86552e-14 -3.76212e-14)
(1.53287e-05 1.64217e-14 -4.67205e-14)
(1.53287e-05 1.39006e-14 -4.92739e-14)
(1.53287e-05 1.06446e-14 -5.19998e-14)
(1.53287e-05 1.041e-14 -5.41774e-14)
(1.53287e-05 1.23439e-14 -5.92912e-14)
(1.53287e-05 1.69384e-14 -6.38265e-14)
(1.53287e-05 2.11219e-14 -7.10038e-14)
(1.53287e-05 2.55543e-14 -7.69062e-14)
(1.53287e-05 2.53814e-14 -8.3234e-14)
(1.53287e-05 2.38423e-14 -8.48996e-14)
(1.53287e-05 1.79649e-14 -8.77506e-14)
(1.53287e-05 3.00507e-14 -9.76212e-14)
(1.53287e-05 5.34846e-14 -1.10293e-13)
(1.53287e-05 1.1188e-13 -1.40748e-13)
(1.53287e-05 1.85406e-13 -1.84289e-13)
(1.53287e-05 2.8204e-13 -2.46091e-13)
(1.53287e-05 4.14212e-13 -3.3681e-13)
(1.53287e-05 6.23189e-13 -4.66157e-13)
(1.53287e-05 9.3429e-13 -6.33811e-13)
(1.53287e-05 1.37271e-12 -8.61152e-13)
(1.53287e-05 1.97297e-12 -1.1762e-12)
(1.53287e-05 2.79857e-12 -1.58255e-12)
(1.53287e-05 3.88366e-12 -2.05071e-12)
(1.53287e-05 5.25419e-12 -2.48831e-12)
(1.53287e-05 6.8445e-12 -2.72057e-12)
(1.53286e-05 8.70722e-12 -1.73458e-12)
(1.53285e-05 1.06274e-11 1.42503e-12)
(1.53284e-05 8.67728e-12 1.9536e-12)
(1.53282e-05 8.24178e-12 3.06938e-11)
(1.53279e-05 2.47407e-11 8.39984e-11)
(2.58504e-05 -2.24642e-11 2.3898e-10)
(2.58505e-05 -7.70329e-11 -2.14538e-10)
(2.58508e-05 -4.08572e-11 4.96718e-11)
(2.58508e-05 -3.98739e-11 -3.98295e-11)
(2.5851e-05 -2.77463e-11 -9.16694e-12)
(2.5851e-05 -1.9149e-11 2.38573e-12)
(2.58511e-05 -1.44037e-11 -4.4363e-12)
(2.58511e-05 -9.33227e-12 3.14319e-13)
(2.58511e-05 -6.2447e-12 1.00525e-12)
(2.58511e-05 -4.14747e-12 2.73522e-13)
(2.58511e-05 -2.46676e-12 6.26988e-13)
(2.58511e-05 -1.32935e-12 6.31884e-13)
(2.58511e-05 -4.66638e-13 5.27544e-13)
(2.58511e-05 1.28464e-13 4.07865e-13)
(2.58511e-05 5.32945e-13 4.13673e-13)
(2.58511e-05 7.80657e-13 3.52868e-13)
(2.58511e-05 9.36388e-13 3.89493e-13)
(2.58511e-05 1.01317e-12 3.52962e-13)
(2.58511e-05 1.05948e-12 3.33483e-13)
(2.58511e-05 1.06657e-12 3.18332e-13)
(2.58511e-05 1.04523e-12 3.10848e-13)
(2.58511e-05 9.95288e-13 3.06088e-13)
(2.58511e-05 9.24484e-13 3.02725e-13)
(2.58511e-05 8.33291e-13 3.1778e-13)
(2.58511e-05 7.36467e-13 3.2378e-13)
(2.58511e-05 6.41557e-13 3.3389e-13)
(2.58511e-05 5.61572e-13 3.18683e-13)
(2.58511e-05 4.88457e-13 3.23087e-13)
(2.58511e-05 4.30767e-13 2.94412e-13)
(2.58511e-05 3.75044e-13 2.87231e-13)
(2.58511e-05 3.29003e-13 2.55436e-13)
(2.58511e-05 2.80359e-13 2.52232e-13)
(2.58511e-05 2.38848e-13 2.2707e-13)
(2.58511e-05 1.96421e-13 2.28956e-13)
(2.58511e-05 1.62794e-13 2.05562e-13)
(2.58511e-05 1.30479e-13 2.10553e-13)
(2.58511e-05 1.09413e-13 1.8251e-13)
(2.58511e-05 9.81856e-14 1.82159e-13)
(2.58511e-05 1.04577e-13 1.50561e-13)
(2.58511e-05 1.15509e-13 1.39882e-13)
(2.58511e-05 1.24107e-13 1.11874e-13)
(2.58511e-05 1.11912e-13 1.02756e-13)
(2.58511e-05 8.35093e-14 7.88981e-14)
(2.58511e-05 4.33008e-14 7.83034e-14)
(2.58511e-05 1.31539e-14 6.46907e-14)
(2.58511e-05 -1.17764e-14 7.98002e-14)
(2.58511e-05 -2.79054e-14 5.66656e-14)
(2.58511e-05 -4.47864e-14 5.63201e-14)
(2.58511e-05 -5.3949e-14 2.96353e-14)
(2.58511e-05 -6.38615e-14 3.21019e-14)
(2.58511e-05 -6.3088e-14 9.49052e-15)
(2.58511e-05 -5.42499e-14 1.66881e-14)
(2.58511e-05 -2.78766e-14 -6.21362e-16)
(2.58511e-05 9.77318e-16 2.86912e-15)
(2.58511e-05 3.45e-14 -8.38026e-15)
(2.58511e-05 5.19338e-14 -4.58823e-15)
(2.58511e-05 5.38552e-14 -1.65187e-14)
(2.58511e-05 4.57074e-14 -1.02673e-14)
(2.58511e-05 4.94117e-14 -1.53209e-14)
(2.58511e-05 5.90556e-14 -1.48848e-15)
(2.58511e-05 6.97837e-14 -8.56634e-15)
(2.58511e-05 5.77872e-14 -9.43096e-15)
(2.58511e-05 2.82776e-14 -3.07074e-14)
(2.58511e-05 -3.83867e-15 -2.87448e-14)
(2.58511e-05 -1.936e-14 -2.9607e-14)
(2.58511e-05 -1.93804e-14 -1.96709e-14)
(2.58511e-05 -3.36915e-15 -3.00766e-14)
(2.58511e-05 1.13646e-14 -3.90124e-14)
(2.58511e-05 2.32774e-14 -5.01884e-14)
(2.58511e-05 3.15836e-14 -5.71799e-14)
(2.58511e-05 4.19754e-14 -6.02701e-14)
(2.58511e-05 5.26636e-14 -5.92746e-14)
(2.58511e-05 6.61238e-14 -5.95729e-14)
(2.58511e-05 8.30089e-14 -6.06154e-14)
(2.58511e-05 1.03604e-13 -6.38865e-14)
(2.58511e-05 1.2297e-13 -6.62025e-14)
(2.58511e-05 1.43557e-13 -7.0326e-14)
(2.58511e-05 1.61375e-13 -7.46266e-14)
(2.58511e-05 1.79476e-13 -8.2178e-14)
(2.58511e-05 1.92471e-13 -8.784e-14)
(2.58511e-05 2.10274e-13 -1.07035e-13)
(2.58511e-05 2.33435e-13 -1.15676e-13)
(2.58511e-05 2.82622e-13 -1.46412e-13)
(2.58511e-05 3.56997e-13 -1.67419e-13)
(2.58511e-05 4.69127e-13 -2.20691e-13)
(2.58511e-05 6.42294e-13 -2.66842e-13)
(2.58511e-05 9.18595e-13 -3.33727e-13)
(2.58511e-05 1.35464e-12 -3.95562e-13)
(2.58511e-05 2.05864e-12 -4.52917e-13)
(2.58511e-05 3.13215e-12 -4.10968e-13)
(2.58511e-05 4.77989e-12 -2.89055e-13)
(2.58511e-05 7.22647e-12 5.35197e-14)
(2.58511e-05 1.07603e-11 8.24052e-13)
(2.5851e-05 1.57813e-11 2.44732e-12)
(2.5851e-05 2.28202e-11 5.53939e-12)
(2.58509e-05 3.25982e-11 1.20292e-11)
(2.58508e-05 4.55269e-11 2.3548e-11)
(2.58506e-05 6.25455e-11 3.5623e-11)
(2.58503e-05 8.66931e-11 9.46616e-11)
(2.58499e-05 9.10472e-11 1.62831e-10)
(3.15668e-05 -9.51317e-12 2.39962e-10)
(3.15669e-05 -8.24356e-11 -2.30607e-10)
(3.15673e-05 -3.87551e-11 4.82892e-11)
(3.15673e-05 -4.35078e-11 -5.50743e-11)
(3.15675e-05 -2.84908e-11 -1.38755e-11)
(3.15675e-05 -2.01965e-11 -2.79536e-13)
(3.15675e-05 -1.56995e-11 -7.95108e-12)
(3.15676e-05 -1.0335e-11 -1.07643e-12)
(3.15676e-05 -7.16118e-12 3.41504e-14)
(3.15676e-05 -4.90677e-12 -2.35246e-13)
(3.15676e-05 -3.10511e-12 2.85332e-13)
(3.15676e-05 -1.73946e-12 5.45715e-13)
(3.15676e-05 -7.39339e-13 5.15587e-13)
(3.15676e-05 -1.85115e-14 5.83628e-13)
(3.15676e-05 5.07531e-13 5.69227e-13)
(3.15676e-05 8.55849e-13 6.11926e-13)
(3.15676e-05 1.06812e-12 5.7071e-13)
(3.15676e-05 1.19563e-12 5.47791e-13)
(3.15676e-05 1.25365e-12 5.13933e-13)
(3.15676e-05 1.24833e-12 4.87752e-13)
(3.15676e-05 1.19875e-12 4.80009e-13)
(3.15676e-05 1.11348e-12 4.78423e-13)
(3.15676e-05 1.00071e-12 4.84336e-13)
(3.15676e-05 8.64987e-13 4.80802e-13)
(3.15676e-05 7.19346e-13 4.89838e-13)
(3.15676e-05 5.86362e-13 4.74832e-13)
(3.15676e-05 4.78773e-13 4.90352e-13)
(3.15676e-05 3.92149e-13 4.50815e-13)
(3.15676e-05 3.23309e-13 4.3449e-13)
(3.15676e-05 2.63807e-13 3.74078e-13)
(3.15676e-05 2.10365e-13 3.62135e-13)
(3.15676e-05 1.54585e-13 3.21504e-13)
(3.15676e-05 1.01691e-13 3.26577e-13)
(3.15676e-05 5.05325e-14 2.99628e-13)
(3.15676e-05 7.97323e-15 3.01391e-13)
(3.15676e-05 -3.27216e-14 2.64203e-13)
(3.15676e-05 -5.62211e-14 2.592e-13)
(3.15676e-05 -6.10077e-14 2.24078e-13)
(3.15676e-05 -4.372e-14 2.16301e-13)
(3.15676e-05 -1.98402e-14 1.70014e-13)
(3.15676e-05 1.07772e-15 1.44144e-13)
(3.15676e-05 -1.96318e-15 1.07041e-13)
(3.15676e-05 -3.03539e-14 1.0344e-13)
(3.15676e-05 -6.97673e-14 9.65818e-14)
(3.15676e-05 -9.68994e-14 1.25973e-13)
(3.15676e-05 -1.11204e-13 1.1189e-13)
(3.15676e-05 -1.16016e-13 1.16328e-13)
(3.15676e-05 -1.19737e-13 7.35793e-14)
(3.15676e-05 -1.20095e-13 6.9439e-14)
(3.15676e-05 -1.19547e-13 3.4693e-14)
(3.15676e-05 -1.12633e-13 4.17182e-14)
(3.15676e-05 -9.01658e-14 1.62049e-14)
(3.15676e-05 -5.14808e-14 2.33957e-14)
(3.15676e-05 -6.91149e-15 -9.76006e-15)
(3.15676e-05 4.04288e-14 -1.99513e-14)
(3.15676e-05 6.53901e-14 -4.53521e-14)
(3.15676e-05 7.38238e-14 -3.77896e-14)
(3.15676e-05 6.90302e-14 -3.99983e-14)
(3.15676e-05 7.86046e-14 -1.6706e-14)
(3.15676e-05 1.01301e-13 -2.64081e-14)
(3.15676e-05 1.24341e-13 -2.57184e-14)
(3.15676e-05 1.11794e-13 -5.54381e-14)
(3.15676e-05 7.31759e-14 -6.08707e-14)
(3.15676e-05 2.74909e-14 -6.89697e-14)
(3.15676e-05 2.25859e-15 -4.15638e-14)
(3.15676e-05 6.53327e-15 -4.097e-14)
(3.15676e-05 3.18109e-14 -4.47883e-14)
(3.15676e-05 5.79057e-14 -6.97445e-14)
(3.15676e-05 7.60209e-14 -8.73856e-14)
(3.15676e-05 8.81676e-14 -9.54633e-14)
(3.15676e-05 1.01248e-13 -9.18746e-14)
(3.15676e-05 1.18997e-13 -8.50639e-14)
(3.15676e-05 1.44351e-13 -7.85779e-14)
(3.15676e-05 1.74111e-13 -7.73357e-14)
(3.15676e-05 2.06515e-13 -7.71844e-14)
(3.15676e-05 2.40106e-13 -7.83839e-14)
(3.15676e-05 2.7521e-13 -7.90515e-14)
(3.15676e-05 3.12867e-13 -8.51075e-14)
(3.15676e-05 3.52674e-13 -9.04098e-14)
(3.15676e-05 3.93549e-13 -1.04712e-13)
(3.15676e-05 4.39289e-13 -1.04592e-13)
(3.15676e-05 4.88037e-13 -1.30634e-13)
(3.15676e-05 5.63899e-13 -1.34755e-13)
(3.15676e-05 6.59154e-13 -1.77133e-13)
(3.15676e-05 7.90348e-13 -2.02182e-13)
(3.15676e-05 9.56238e-13 -2.40098e-13)
(3.15676e-05 1.18937e-12 -2.23356e-13)
(3.15676e-05 1.5548e-12 -1.60644e-13)
(3.15676e-05 2.15903e-12 2.72216e-14)
(3.15676e-05 3.10947e-12 3.47328e-13)
(3.15676e-05 4.58107e-12 9.48221e-13)
(3.15676e-05 6.80017e-12 1.97779e-12)
(3.15676e-05 1.00485e-11 3.79391e-12)
(3.15675e-05 1.47024e-11 6.90965e-12)
(3.15675e-05 2.12736e-11 1.20884e-11)
(3.15674e-05 3.05059e-11 2.14613e-11)
(3.15673e-05 4.31459e-11 3.67197e-11)
(3.15671e-05 5.94582e-11 5.15896e-11)
(3.15668e-05 8.46655e-11 1.17757e-10)
(3.15664e-05 9.09964e-11 1.88159e-10)
(3.83796e-05 1.80202e-10 2.08554e-10)
(3.83797e-05 -1.19886e-10 -2.83411e-10)
(3.838e-05 2.57727e-11 2.2912e-11)
(3.83801e-05 -1.94991e-11 -8.20152e-11)
(3.83802e-05 -7.17286e-12 -3.05242e-11)
(3.83803e-05 -1.68532e-13 -1.18411e-11)
(3.83803e-05 -5.3107e-12 -1.59438e-11)
(3.83804e-05 -3.0974e-12 -6.38494e-12)
(3.83804e-05 -2.2858e-12 -3.23589e-12)
(3.83804e-05 -2.39695e-12 -2.36273e-12)
(3.83804e-05 -1.74926e-12 -8.69628e-13)
(3.83804e-05 -1.12216e-12 -6.30401e-14)
(3.83804e-05 -6.152e-13 3.91131e-13)
(3.83804e-05 -2.25726e-13 6.59879e-13)
(3.83804e-05 1.21493e-13 8.23583e-13)
(3.83804e-05 3.76772e-13 8.94907e-13)
(3.83804e-05 5.78929e-13 8.38981e-13)
(3.83804e-05 7.10079e-13 8.00481e-13)
(3.83804e-05 7.69432e-13 7.5955e-13)
(3.83804e-05 7.41401e-13 7.30366e-13)
(3.83804e-05 6.67808e-13 7.26233e-13)
(3.83804e-05 5.52723e-13 7.5407e-13)
(3.83804e-05 4.2087e-13 7.78609e-13)
(3.83804e-05 2.79531e-13 7.92795e-13)
(3.83804e-05 1.25565e-13 7.98628e-13)
(3.83804e-05 1.154e-14 8.31016e-13)
(3.83804e-05 -8.73249e-14 8.39346e-13)
(3.83804e-05 -1.05312e-13 8.19421e-13)
(3.83804e-05 -1.32359e-13 7.48811e-13)
(3.83804e-05 -1.22896e-13 6.8061e-13)
(3.83804e-05 -1.56183e-13 6.08061e-13)
(3.83804e-05 -1.73115e-13 5.62408e-13)
(3.83804e-05 -2.3141e-13 5.18594e-13)
(3.83804e-05 -2.64186e-13 4.94719e-13)
(3.83804e-05 -3.18411e-13 4.6588e-13)
(3.83804e-05 -3.4239e-13 4.51875e-13)
(3.83804e-05 -3.79146e-13 4.28343e-13)
(3.83804e-05 -3.57714e-13 4.12564e-13)
(3.83804e-05 -3.35983e-13 3.65786e-13)
(3.83804e-05 -2.76855e-13 3.10218e-13)
(3.83804e-05 -2.35605e-13 2.42067e-13)
(3.83804e-05 -2.09655e-13 1.96401e-13)
(3.83804e-05 -2.40652e-13 1.80347e-13)
(3.83804e-05 -2.69486e-13 2.11488e-13)
(3.83804e-05 -3.0308e-13 2.39357e-13)
(3.83804e-05 -2.78542e-13 2.56126e-13)
(3.83804e-05 -2.70289e-13 2.20439e-13)
(3.83804e-05 -2.35332e-13 1.80642e-13)
(3.83804e-05 -2.32151e-13 1.30089e-13)
(3.83804e-05 -2.08928e-13 1.0596e-13)
(3.83804e-05 -2.10514e-13 8.21409e-14)
(3.83804e-05 -1.60129e-13 7.5022e-14)
(3.83804e-05 -1.13977e-13 4.0889e-14)
(3.83804e-05 -2.95343e-14 2.41706e-15)
(3.83804e-05 4.03783e-14 -4.85208e-14)
(3.83804e-05 9.95046e-14 -7.8219e-14)
(3.83804e-05 1.12303e-13 -8.14078e-14)
(3.83804e-05 1.19639e-13 -4.64348e-14)
(3.83804e-05 1.22012e-13 -2.69501e-14)
(3.83804e-05 1.84481e-13 -2.93692e-14)
(3.83804e-05 2.29748e-13 -7.17666e-14)
(3.83804e-05 2.4216e-13 -1.17968e-13)
(3.83804e-05 1.77233e-13 -1.33964e-13)
(3.83804e-05 9.87725e-14 -1.10025e-13)
(3.83804e-05 3.5205e-14 -7.01705e-14)
(3.83804e-05 4.18547e-14 -5.53986e-14)
(3.83804e-05 6.87695e-14 -8.19929e-14)
(3.83804e-05 1.09386e-13 -1.29293e-13)
(3.83804e-05 1.29683e-13 -1.67806e-13)
(3.83804e-05 1.29746e-13 -1.81076e-13)
(3.83804e-05 1.30546e-13 -1.70244e-13)
(3.83804e-05 1.38387e-13 -1.53234e-13)
(3.83804e-05 1.61644e-13 -1.38824e-13)
(3.83804e-05 1.89366e-13 -1.37462e-13)
(3.83804e-05 2.2567e-13 -1.42962e-13)
(3.83804e-05 2.65915e-13 -1.50617e-13)
(3.83804e-05 3.12949e-13 -1.60905e-13)
(3.83804e-05 3.70463e-13 -1.72419e-13)
(3.83804e-05 4.38503e-13 -1.88868e-13)
(3.83804e-05 5.24315e-13 -1.90981e-13)
(3.83804e-05 5.96143e-13 -2.08843e-13)
(3.83804e-05 6.87782e-13 -2.19122e-13)
(3.83804e-05 7.53042e-13 -2.44773e-13)
(3.83804e-05 8.57469e-13 -2.71117e-13)
(3.83804e-05 9.24874e-13 -3.00207e-13)
(3.83804e-05 9.33384e-13 -2.77739e-13)
(3.83804e-05 8.13733e-13 -1.47568e-13)
(3.83804e-05 5.94294e-13 1.81327e-13)
(3.83804e-05 2.57436e-13 7.78662e-13)
(3.83804e-05 -1.4498e-13 1.76003e-12)
(3.83804e-05 -6.86722e-13 3.3942e-12)
(3.83804e-05 -1.40156e-12 6.03606e-12)
(3.83804e-05 -2.3401e-12 1.02812e-11)
(3.83803e-05 -3.51859e-12 1.70353e-11)
(3.83803e-05 -4.89881e-12 2.75142e-11)
(3.83802e-05 -5.6738e-12 4.44516e-11)
(3.838e-05 -4.89554e-12 6.98521e-11)
(3.83798e-05 -2.34739e-12 9.74044e-11)
(3.83795e-05 2.54816e-11 1.78929e-10)
(3.83791e-05 5.3392e-11 2.48203e-10)
(5.71825e-05 2.44047e-12 -8.16322e-11)
(5.71827e-05 3.75069e-11 -3.03431e-10)
(5.71832e-05 2.15243e-11 -1.51357e-10)
(5.71833e-05 2.07484e-11 -1.38393e-10)
(5.71836e-05 2.0082e-11 -8.71726e-11)
(5.71837e-05 1.57843e-11 -5.28806e-11)
(5.71838e-05 9.59738e-12 -3.82788e-11)
(5.71838e-05 5.97405e-12 -2.33876e-11)
(5.71839e-05 3.45657e-12 -1.46841e-11)
(5.71839e-05 1.82052e-12 -9.39945e-12)
(5.71839e-05 1.41797e-12 -5.0675e-12)
(5.71839e-05 1.26809e-12 -2.4538e-12)
(5.71839e-05 1.54647e-12 -8.04462e-13)
(5.71839e-05 1.80204e-12 1.30343e-13)
(5.71839e-05 2.13293e-12 7.53312e-13)
(5.71839e-05 2.31204e-12 1.00191e-12)
(5.71839e-05 2.49249e-12 1.19588e-12)
(5.71839e-05 2.52075e-12 1.31679e-12)
(5.71839e-05 2.44891e-12 1.40851e-12)
(5.71839e-05 2.2649e-12 1.40141e-12)
(5.71839e-05 2.03339e-12 1.37234e-12)
(5.71839e-05 1.77664e-12 1.32727e-12)
(5.71839e-05 1.52178e-12 1.30444e-12)
(5.71839e-05 1.25443e-12 1.25728e-12)
(5.71839e-05 9.99977e-13 1.2169e-12)
(5.71839e-05 7.24469e-13 1.1197e-12)
(5.71839e-05 5.16698e-13 1.063e-12)
(5.71839e-05 3.12256e-13 9.65745e-13)
(5.71839e-05 2.00864e-13 9.54041e-13)
(5.71839e-05 4.94882e-14 8.76175e-13)
(5.71839e-05 -3.79696e-14 8.52843e-13)
(5.71839e-05 -1.6794e-13 7.63165e-13)
(5.71839e-05 -2.25023e-13 7.38235e-13)
(5.71839e-05 -3.06381e-13 6.64695e-13)
(5.71839e-05 -3.10261e-13 6.64482e-13)
(5.71839e-05 -3.42094e-13 6.09416e-13)
(5.71839e-05 -3.21954e-13 5.89979e-13)
(5.71839e-05 -3.38764e-13 5.14235e-13)
(5.71839e-05 -2.91134e-13 5.03333e-13)
(5.71839e-05 -2.66631e-13 4.54513e-13)
(5.71839e-05 -1.95979e-13 4.64932e-13)
(5.71839e-05 -1.63698e-13 4.38726e-13)
(5.71839e-05 -1.39926e-13 4.14676e-13)
(5.71839e-05 -1.68706e-13 3.3736e-13)
(5.71839e-05 -1.60497e-13 3.07198e-13)
(5.71839e-05 -1.68979e-13 2.57113e-13)
(5.71839e-05 -1.13635e-13 2.73029e-13)
(5.71839e-05 -1.00084e-13 2.35203e-13)
(5.71839e-05 -4.66911e-14 2.41998e-13)
(5.71839e-05 -5.08716e-14 1.80371e-13)
(5.71839e-05 -2.58069e-14 1.56807e-13)
(5.71839e-05 -5.4304e-14 7.79127e-14)
(5.71839e-05 -3.00675e-14 6.88048e-14)
(5.71839e-05 -3.31306e-14 2.24538e-14)
(5.71839e-05 1.20443e-14 4.54121e-14)
(5.71839e-05 1.76559e-14 2.94945e-14)