/*--------------------------------*- C++ -*----------------------------------*\
| =========                 |                                                 |
| \\      /  F ield         | OpenFOAM: The Open Source CFD Toolbox           |
|  \\    /   O peration     | Version:  2412                                  |
|   \\  /    A nd           | Website:  www.openfoam.com                      |
|    \\/     M anipulation  |                                                 |
\*---------------------------------------------------------------------------*/
FoamFile
{
    version     2.0;
    format      ascii;
    arch        "LSB;label=32;scalar=64";
    class       volVectorField;
    location    "100";
    object      U;
}
// * * * * * * * * * * * * * * * * * * * * * * * * * * * * * * * * * * * * * //

dimensions      [0 1 -1 0 0 0 0];

internalField   nonuniform List<vector> 
3700
(
(5.67745e-06 3.02694e-11 1.93075e-10)
(5.67738e-06 -9.25264e-12 -7.63126e-11)
(5.67745e-06 1.27939e-11 3.75421e-11)
(5.67744e-06 3.83419e-12 -6.62885e-12)
(5.67747e-06 4.20186e-12 9.28318e-13)
(5.67748e-06 3.54038e-12 6.28161e-12)
(5.67749e-06 2.29945e-12 5.79239e-13)
(5.6775e-06 1.8596e-12 1.42028e-12)
(5.67751e-06 1.35807e-12 1.56103e-12)
(5.67751e-06 1.01716e-12 7.98527e-13)
(5.67751e-06 7.89112e-13 6.25305e-13)
(5.67752e-06 6.24974e-13 5.21199e-13)
(5.67752e-06 5.00062e-13 4.04373e-13)
(5.67752e-06 4.14689e-13 3.04009e-13)
(5.67752e-06 3.43319e-13 2.47606e-13)
(5.67752e-06 2.8889e-13 1.93035e-13)
(5.67752e-06 2.41848e-13 1.42785e-13)
(5.67753e-06 2.04942e-13 9.32503e-14)
(5.67753e-06 1.72066e-13 3.97315e-14)
(5.67753e-06 1.46115e-13 2.52816e-14)
(5.67753e-06 1.26439e-13 6.38771e-15)
(5.67753e-06 1.10136e-13 7.29752e-15)
(5.67753e-06 9.84182e-14 -6.81113e-15)
(5.67753e-06 9.15742e-14 7.14419e-15)
(5.67753e-06 8.70734e-14 1.16566e-14)
(5.67753e-06 8.164e-14 2.90299e-14)
(5.67753e-06 7.74614e-14 2.52932e-14)
(5.67753e-06 7.33013e-14 1.35541e-14)
(5.67753e-06 6.95856e-14 7.87627e-15)
(5.67753e-06 6.74147e-14 2.44721e-14)
(5.67753e-06 6.64844e-14 4.11113e-14)
(5.67753e-06 6.41716e-14 5.52224e-14)
(5.67753e-06 6.34293e-14 4.9633e-14)
(5.67753e-06 6.0499e-14 6.21879e-14)
(5.67753e-06 5.77055e-14 5.82528e-14)
(5.67753e-06 5.19733e-14 4.40669e-14)
(5.67753e-06 4.81473e-14 1.06005e-14)
(5.67753e-06 4.32355e-14 1.18712e-14)
(5.67753e-06 4.243e-14 1.4024e-14)
(5.67753e-06 3.99652e-14 3.41918e-14)
(5.67753e-06 3.84359e-14 3.13277e-14)
(5.67753e-06 3.75383e-14 1.94323e-14)
(5.67753e-06 3.56996e-14 1.73932e-14)
(5.67753e-06 3.70611e-14 4.37847e-14)
(5.67753e-06 4.2215e-14 6.13709e-14)
(5.67753e-06 4.66818e-14 8.103e-14)
(5.67753e-06 4.53883e-14 6.68037e-14)
(5.67753e-06 4.45432e-14 8.55195e-14)
(5.67753e-06 3.96956e-14 7.57667e-14)
(5.67753e-06 2.94748e-14 5.60445e-14)
(5.67753e-06 2.28247e-14 5.99442e-15)
(5.67754e-06 1.75149e-14 1.12415e-14)
(5.67754e-06 1.78574e-14 1.02606e-14)
(5.67754e-06 1.91896e-14 4.74363e-14)
(5.67754e-06 1.93248e-14 3.96733e-14)
(5.67754e-06 1.20932e-14 2.9853e-14)
(5.67754e-06 6.94802e-15 -1.99891e-14)
(5.67754e-06 5.90179e-15 3.69725e-17)
(5.67754e-06 1.09662e-14 8.3943e-16)
(5.67754e-06 1.50644e-14 4.68359e-14)
(5.67754e-06 1.77933e-14 4.55762e-14)
(5.67754e-06 2.05746e-14 5.93351e-14)
(5.67754e-06 1.30117e-14 3.5043e-14)
(5.67754e-06 1.23808e-14 3.62879e-14)
(5.67754e-06 6.01577e-15 1.3921e-14)
(5.67754e-06 3.9165e-15 1.7389e-14)
(5.67754e-06 -1.34477e-15 -3.36207e-15)
(5.67754e-06 -3.88845e-15 7.55248e-16)
(5.67754e-06 -9.12757e-15 -1.97264e-14)
(5.67754e-06 -1.00081e-14 -1.60799e-14)
(5.67754e-06 -1.56022e-14 -3.38659e-14)
(5.67754e-06 -1.59315e-14 -2.84207e-14)
(5.67754e-06 -1.9959e-14 -5.10812e-14)
(5.67754e-06 -2.35812e-14 -6.47691e-14)
(5.67754e-06 -3.29647e-14 -9.95079e-14)
(5.67754e-06 -2.99104e-14 -7.89557e-14)
(5.67754e-06 -2.2354e-14 -7.04462e-14)
(5.67754e-06 -1.78015e-14 -2.88213e-14)
(5.67754e-06 -1.27463e-14 -2.77931e-14)
(5.67754e-06 -1.34639e-14 -2.72968e-14)
(5.67754e-06 -1.64606e-14 -5.70499e-14)
(5.67754e-06 -1.39582e-14 -3.84047e-14)
(5.67754e-06 -6.94353e-15 -2.88657e-14)
(5.67754e-06 -3.73966e-15 8.6526e-15)
(5.67754e-06 2.15945e-15 1.18977e-14)
(5.67754e-06 3.47203e-16 1.32606e-14)
(5.67754e-06 4.00458e-16 -1.44904e-14)
(5.67754e-06 2.29008e-16 4.49339e-15)
(5.67754e-06 6.41678e-15 1.15428e-14)
(5.67754e-06 1.10791e-14 4.68758e-14)
(5.67754e-06 1.61688e-14 5.12393e-14)
(5.67754e-06 1.89654e-14 6.31318e-14)
(5.67754e-06 1.48861e-14 4.63073e-14)
(5.67754e-06 1.57143e-14 5.02871e-14)
(5.67754e-06 1.11506e-14 3.58344e-14)
(5.67754e-06 8.48649e-15 2.73697e-14)
(5.67754e-06 1.16623e-14 4.4318e-14)
(5.67754e-06 1.30448e-16 1.95968e-14)
(5.67754e-06 6.1229e-16 4.43664e-14)
(5.67754e-06 9.77806e-15 6.89634e-14)
(8.04175e-06 2.81805e-12 2.39489e-10)
(8.04169e-06 4.60066e-12 -1.11415e-10)
(8.0418e-06 5.26541e-12 5.89941e-11)
(8.04177e-06 3.8783e-12 -4.83551e-12)
(8.04182e-06 3.43982e-12 2.125e-12)
(8.04183e-06 2.70578e-12 9.38846e-12)
(8.04184e-06 1.8801e-12 1.37421e-12)
(8.04186e-06 1.3902e-12 2.29862e-12)
(8.04186e-06 1.02329e-12 2.38027e-12)
(8.04187e-06 7.51462e-13 1.31216e-12)
(8.04188e-06 5.80966e-13 1.00522e-12)
(8.04188e-06 4.61765e-13 8.5668e-13)
(8.04188e-06 3.77697e-13 6.64231e-13)
(8.04189e-06 3.11161e-13 5.22211e-13)
(8.04189e-06 2.59943e-13 4.25747e-13)
(8.04189e-06 2.16344e-13 3.47775e-13)
(8.04189e-06 1.79784e-13 2.72693e-13)
(8.04189e-06 1.52211e-13 2.04266e-13)
(8.04189e-06 1.28736e-13 1.388e-13)
(8.0419e-06 1.12153e-13 1.05498e-13)
(8.0419e-06 9.50375e-14 8.21404e-14)
(8.0419e-06 8.33579e-14 6.72324e-14)
(8.0419e-06 7.19874e-14 5.04437e-14)
(8.0419e-06 6.74624e-14 5.28231e-14)
(8.0419e-06 6.10212e-14 5.52081e-14)
(8.0419e-06 5.87851e-14 6.71069e-14)
(8.0419e-06 5.34705e-14 5.95766e-14)
(8.0419e-06 5.31485e-14 5.31282e-14)
(8.0419e-06 4.90334e-14 4.25278e-14)
(8.0419e-06 5.01869e-14 5.91145e-14)
(8.0419e-06 4.96397e-14 7.34988e-14)
(8.0419e-06 4.93099e-14 8.30528e-14)
(8.0419e-06 4.83837e-14 8.16054e-14)
(8.0419e-06 4.55119e-14 9.17054e-14)
(8.0419e-06 4.11512e-14 8.68852e-14)
(8.0419e-06 3.76184e-14 6.86253e-14)
(8.0419e-06 3.42715e-14 3.48283e-14)
(8.0419e-06 3.30525e-14 3.2054e-14)
(8.0419e-06 3.09714e-14 3.58785e-14)
(8.0419e-06 3.08708e-14 5.13374e-14)
(8.0419e-06 2.66816e-14 4.72842e-14)
(8.0419e-06 2.85525e-14 4.59729e-14)
(8.0419e-06 2.55334e-14 3.62368e-14)
(8.0419e-06 3.087e-14 6.09166e-14)
(8.0419e-06 3.22236e-14 7.84805e-14)
(8.04191e-06 3.29013e-14 9.22434e-14)
(8.04191e-06 3.39022e-14 8.67628e-14)
(8.04191e-06 3.06505e-14 9.98612e-14)
(8.04191e-06 2.50846e-14 9.15611e-14)
(8.04191e-06 2.10136e-14 6.66176e-14)
(8.04191e-06 1.82731e-14 2.02357e-14)
(8.04191e-06 1.57702e-14 1.74613e-14)
(8.04191e-06 1.38488e-14 2.5199e-14)
(8.04191e-06 1.22197e-14 4.89218e-14)
(8.04191e-06 9.5779e-15 4.87332e-14)
(8.04191e-06 6.57632e-15 3.02088e-14)
(8.04191e-06 6.65612e-15 -8.93519e-15)
(8.04191e-06 6.29283e-15 -1.2766e-15)
(8.04191e-06 8.00161e-15 1.46299e-14)
(8.04191e-06 9.20168e-15 4.49161e-14)
(8.04191e-06 8.57995e-15 5.01294e-14)
(8.04191e-06 7.01622e-15 5.74423e-14)
(8.04191e-06 5.94903e-15 3.83171e-14)
(8.04191e-06 2.82583e-15 3.64586e-14)
(8.04191e-06 7.11423e-16 1.70234e-14)
(8.04191e-06 -2.49482e-15 1.55579e-14)
(8.04191e-06 -5.36877e-15 -3.40139e-15)
(8.04191e-06 -7.44198e-15 -3.89262e-15)
(8.04191e-06 -1.13878e-14 -2.27163e-14)
(8.04191e-06 -1.32782e-14 -2.26877e-14)
(8.04191e-06 -1.70341e-14 -3.90445e-14)
(8.04191e-06 -1.87026e-14 -3.83737e-14)
(8.04191e-06 -2.21037e-14 -5.68688e-14)
(8.04191e-06 -2.47388e-14 -7.29236e-14)
(8.04191e-06 -2.42373e-14 -1.01377e-13)
(8.04191e-06 -2.37094e-14 -9.00081e-14)
(8.04191e-06 -2.06971e-14 -7.20665e-14)
(8.04191e-06 -1.81516e-14 -4.11602e-14)
(8.04191e-06 -1.65692e-14 -3.32081e-14)
(8.04191e-06 -1.55882e-14 -3.70906e-14)
(8.04191e-06 -1.35972e-14 -5.88175e-14)
(8.04191e-06 -1.22867e-14 -4.59798e-14)
(8.04191e-06 -8.79229e-15 -2.68796e-14)
(8.04191e-06 -5.54378e-15 1.53484e-15)
(8.04191e-06 -4.33977e-15 1.25805e-14)
(8.04191e-06 -2.51401e-15 8.74444e-15)
(8.04191e-06 -2.46069e-17 -1.09062e-14)
(8.04191e-06 1.41638e-15 1.61818e-15)
(8.04191e-06 4.44444e-15 1.83281e-14)
(8.04191e-06 7.26915e-15 4.49547e-14)
(8.04191e-06 7.64444e-15 5.48286e-14)
(8.04191e-06 8.47357e-15 6.23611e-14)
(8.04191e-06 8.15389e-15 5.04494e-14)
(8.04191e-06 7.72972e-15 5.1415e-14)
(8.04191e-06 6.75064e-15 3.98219e-14)
(8.04191e-06 6.38815e-15 2.90775e-14)
(8.04191e-06 3.54756e-15 5.48319e-14)
(8.04191e-06 4.11013e-15 1.02552e-15)
(8.04191e-06 2.39109e-15 4.0755e-14)
(8.04191e-06 3.85686e-15 8.62625e-14)
(5.67745e-06 -1.86848e-11 1.85341e-10)
(5.67738e-06 1.18053e-11 -7.43416e-11)
(5.67745e-06 -6.35202e-12 3.68223e-11)
(5.67744e-06 7.91672e-13 -7.02128e-12)
(5.67747e-06 -4.51469e-13 1.06376e-12)
(5.67748e-06 -4.21803e-13 6.1331e-12)
(5.67749e-06 -1.11703e-13 3.52503e-13)
(5.6775e-06 -2.65667e-13 1.37665e-12)
(5.67751e-06 -1.49389e-13 1.52594e-12)
(5.67751e-06 -1.44249e-13 7.64159e-13)
(5.67751e-06 -1.16396e-13 6.06954e-13)
(5.67752e-06 -9.50184e-14 5.30838e-13)
(5.67752e-06 -7.0029e-14 4.08547e-13)
(5.67752e-06 -6.53856e-14 3.09316e-13)
(5.67752e-06 -5.39076e-14 2.52777e-13)
(5.67752e-06 -4.92502e-14 1.98514e-13)
(5.67752e-06 -4.51955e-14 1.51339e-13)
(5.67753e-06 -3.94591e-14 9.93005e-14)
(5.67753e-06 -3.60724e-14 6.34184e-14)
(5.67753e-06 -2.62806e-14 4.23306e-14)
(5.67753e-06 -2.76224e-14 3.13538e-14)
(5.67753e-06 -2.05345e-14 2.01974e-14)
(5.67753e-06 -2.31376e-14 1.31151e-14)
(5.67753e-06 -1.81638e-14 1.7622e-14)
(5.67753e-06 -2.10818e-14 2.30306e-14)
(5.67753e-06 -1.45216e-14 3.2203e-14)
(5.67753e-06 -1.78034e-14 2.60272e-14)
(5.67753e-06 -1.21866e-14 2.07535e-14)
(5.67753e-06 -1.49657e-14 1.47292e-14)
(5.67753e-06 -9.55109e-15 2.95281e-14)
(5.67753e-06 -1.07385e-14 3.99171e-14)
(5.67753e-06 -7.72001e-15 4.84835e-14)
(5.67753e-06 -9.65305e-15 4.61437e-14)
(5.67753e-06 -8.15844e-15 5.49977e-14)
(5.67753e-06 -1.05946e-14 4.83902e-14)
(5.67753e-06 -7.54305e-15 3.40636e-14)
(5.67753e-06 -9.24814e-15 1.52846e-14)
(5.67753e-06 -4.81071e-15 1.54168e-14)
(5.67753e-06 -8.22231e-15 2.13928e-14)
(5.67753e-06 -3.40966e-15 3.0899e-14)
(5.67753e-06 -8.75076e-15 2.72377e-14)
(5.67753e-06 -2.84909e-15 1.98566e-14)
(5.67753e-06 -8.17922e-15 2.0449e-14)
(5.67753e-06 -1.45889e-15 3.96297e-14)
(5.67753e-06 -7.13048e-15 5.77067e-14)
(5.67753e-06 -4.06989e-15 6.47644e-14)
(5.67753e-06 -8.30371e-15 6.35802e-14)
(5.67753e-06 -4.86689e-15 7.21852e-14)
(5.67753e-06 -8.50023e-15 6.47845e-14)
(5.67753e-06 -1.767e-15 3.49892e-14)
(5.67754e-06 -4.59338e-15 1.07656e-14)
(5.67754e-06 2.15857e-15 6.0736e-15)
(5.67754e-06 -4.66874e-15 2.18269e-14)
(5.67754e-06 -9.81519e-16 3.50249e-14)
(5.67754e-06 -9.41556e-15 3.62375e-14)
(5.67754e-06 -2.38939e-15 6.71064e-15)
(5.67754e-06 -6.74978e-15 -7.97119e-15)
(5.67754e-06 2.84045e-15 -6.78728e-15)
(5.67754e-06 -5.51002e-15 1.6024e-14)
(5.67754e-06 7.5509e-16 3.07478e-14)
(5.67754e-06 -1.02713e-14 4.06937e-14)
(5.67754e-06 -2.93204e-15 3.50667e-14)
(5.67754e-06 -8.19253e-15 2.84502e-14)
(5.67754e-06 -2.59304e-15 1.85452e-14)
(5.67754e-06 -6.69539e-15 1.15878e-14)
(5.67754e-06 -3.07423e-15 2.10168e-15)
(5.67754e-06 -7.58491e-15 -3.44943e-15)
(5.67754e-06 -3.37374e-15 -1.25408e-14)
(5.67754e-06 -8.30664e-15 -1.80037e-14)
(5.67754e-06 -3.58071e-15 -2.57901e-14)
(5.67754e-06 -8.04894e-15 -3.01522e-14)
(5.67754e-06 -3.77033e-15 -3.6182e-14)
(5.67754e-06 -9.99929e-15 -4.64848e-14)
(5.67754e-06 -2.78657e-16 -6.85251e-14)
(5.67754e-06 -4.93869e-15 -7.78111e-14)
(5.67754e-06 2.44919e-15 -6.97954e-14)
(5.67754e-06 -8.99974e-15 -5.072e-14)
(5.67754e-06 -3.13123e-15 -3.08742e-14)
(5.67754e-06 -9.54372e-15 -2.49814e-14)
(5.67754e-06 -2.39786e-15 -3.75172e-14)
(5.67754e-06 -5.15987e-15 -4.44016e-14)
(5.67754e-06 7.9478e-16 -3.44348e-14)
(5.67754e-06 -5.84802e-15 -1.67899e-14)
(5.67754e-06 -1.83486e-16 2.99441e-15)
(5.67754e-06 -7.2935e-15 9.69978e-15)
(5.67754e-06 -1.33257e-15 -1.96028e-15)
(5.67754e-06 -4.342e-15 -8.31038e-15)
(5.67754e-06 1.79941e-15 1.09321e-15)
(5.67754e-06 -3.2797e-15 1.83293e-14)
(5.67754e-06 1.53783e-15 3.57286e-14)
(5.67754e-06 -7.38573e-15 4.30621e-14)
(5.67754e-06 -1.05745e-15 4.32605e-14)
(5.67754e-06 -5.92556e-15 3.74883e-14)
(5.67754e-06 -1.46706e-16 3.45374e-14)
(5.67754e-06 -4.20436e-15 3.07902e-14)
(5.67754e-06 1.81459e-15 1.61154e-14)
(5.67754e-06 -5.79828e-15 3.78874e-14)
(5.67754e-06 8.02011e-15 8.08688e-15)
(5.67754e-06 2.39218e-15 3.77171e-14)
(5.67754e-06 -2.90319e-15 6.81895e-14)
(7.05749e-06 1.78682e-10 1.84424e-10)
(7.05739e-06 -8.13038e-11 -7.5466e-11)
(7.0575e-06 3.24487e-11 3.92037e-11)
(7.05748e-06 -7.02402e-12 -1.79988e-12)
(7.05752e-06 8.03488e-14 4.0852e-12)
(7.05753e-06 5.43735e-12 8.11527e-12)
(7.05754e-06 7.26885e-13 2.79434e-12)
(7.05756e-06 1.52558e-12 2.73583e-12)
(7.05756e-06 1.62579e-12 2.54944e-12)
(7.05757e-06 9.63782e-13 1.58356e-12)
(7.05757e-06 7.46025e-13 1.25469e-12)
(7.05757e-06 6.12793e-13 1.00218e-12)
(7.05758e-06 4.72204e-13 8.17962e-13)
(7.05758e-06 3.64602e-13 6.47896e-13)
(7.05758e-06 2.9529e-13 5.46603e-13)
(7.05758e-06 2.38163e-13 4.49348e-13)
(7.05758e-06 1.90401e-13 3.65911e-13)
(7.05759e-06 1.43893e-13 2.94284e-13)
(7.05759e-06 1.02901e-13 2.16594e-13)
(7.05759e-06 8.63476e-14 1.92174e-13)
(7.05759e-06 7.27805e-14 1.454e-13)
(7.05759e-06 6.42032e-14 1.35306e-13)
(7.05759e-06 5.16846e-14 9.49954e-14)
(7.05759e-06 5.43221e-14 1.07838e-13)
(7.05759e-06 5.86126e-14 9.88603e-14)
(7.05759e-06 6.57102e-14 1.16258e-13)
(7.05759e-06 6.23239e-14 9.17072e-14)
(7.05759e-06 4.40905e-14 8.78353e-14)
(7.05759e-06 4.04694e-14 6.68122e-14)
(7.05759e-06 4.82794e-14 9.09616e-14)
(7.05759e-06 6.19806e-14 9.59693e-14)
(7.05759e-06 6.789e-14 1.07977e-13)
(7.05759e-06 6.08646e-14 9.01968e-14)
(7.05759e-06 6.71107e-14 1.01379e-13)
(7.05759e-06 6.55198e-14 8.73287e-14)
(7.05759e-06 4.98766e-14 8.25945e-14)
(7.05759e-06 2.70439e-14 4.95254e-14)
(7.05759e-06 2.60917e-14 5.98659e-14)
(7.05759e-06 3.24591e-14 5.54252e-14)
(7.05759e-06 4.35918e-14 7.75081e-14)
(7.0576e-06 4.32778e-14 5.10629e-14)
(7.0576e-06 2.29264e-14 5.13642e-14)
(7.0576e-06 2.46856e-14 2.96536e-14)
(7.0576e-06 3.85944e-14 7.0816e-14)
(7.0576e-06 5.68093e-14 7.83405e-14)
(7.0576e-06 7.06505e-14 9.99243e-14)
(7.0576e-06 5.5786e-14 7.26475e-14)
(7.0576e-06 7.01501e-14 9.12316e-14)
(7.0576e-06 6.28533e-14 7.02583e-14)
(7.0576e-06 4.56248e-14 6.28097e-14)
(7.0576e-06 7.50676e-15 1.55674e-14)
(7.0576e-06 5.33722e-15 3.438e-14)
(7.0576e-06 1.28977e-14 2.19231e-14)
(7.0576e-06 3.93341e-14 5.60552e-14)
(7.0576e-06 3.75361e-14 2.78895e-14)
(7.0576e-06 2.06472e-14 3.41439e-14)
(7.0576e-06 -1.37963e-14 -1.78845e-14)
(7.0576e-06 -6.06394e-15 1.97918e-14)
(7.0576e-06 4.0335e-15 6.83789e-15)
(7.0576e-06 3.36783e-14 5.4186e-14)
(7.0576e-06 3.61588e-14 2.6252e-14)
(7.0576e-06 4.09228e-14 5.53476e-14)
(7.0576e-06 2.23645e-14 1.66405e-14)
(7.0576e-06 2.11694e-14 3.60815e-14)
(7.0576e-06 6.41596e-15 1.52646e-15)
(7.0576e-06 7.97222e-15 1.98246e-14)
(7.0576e-06 -3.37835e-15 -1.25623e-14)
(7.0576e-06 -5.41203e-15 4.7255e-15)
(7.0576e-06 -1.51975e-14 -2.77941e-14)
(7.0576e-06 -1.67811e-14 -1.17443e-14)
(7.0576e-06 -2.47704e-14 -3.90073e-14)
(7.0576e-06 -2.27621e-14 -2.33412e-14)
(7.0576e-06 -3.34201e-14 -5.47217e-14)
(7.0576e-06 -4.93829e-14 -5.14303e-14)
(7.0576e-06 -7.35491e-14 -9.19039e-14)
(7.0576e-06 -6.13517e-14 -5.68644e-14)
(7.0576e-06 -4.79077e-14 -6.13456e-14)
(7.0576e-06 -1.82572e-14 -1.74534e-14)
(7.0576e-06 -1.12439e-14 -3.72324e-14)
(7.0576e-06 -2.05667e-14 -2.05536e-14)
(7.0576e-06 -4.23248e-14 -5.72773e-14)
(7.0576e-06 -3.20493e-14 -2.45708e-14)
(7.0576e-06 -1.84706e-14 -2.52981e-14)
(7.0576e-06 5.92185e-15 1.20056e-14)
(7.0576e-06 1.35936e-14 -8.52735e-16)
(7.0576e-06 5.86291e-15 1.34261e-14)
(7.0576e-06 -1.30563e-14 -1.87524e-14)
(7.0576e-06 -3.60655e-15 1.21311e-14)
(7.0576e-06 7.31043e-15 8.76878e-15)
(7.0576e-06 3.01398e-14 4.48886e-14)
(7.0576e-06 3.68298e-14 3.09334e-14)
(7.0576e-06 4.14409e-14 5.25059e-14)
(7.0576e-06 2.9655e-14 2.5811e-14)
(7.0576e-06 3.07895e-14 4.39853e-14)
(7.0576e-06 2.18998e-14 1.82699e-14)
(7.0576e-06 1.21222e-14 2.63458e-14)
(7.0576e-06 3.52449e-14 3.20851e-14)
(7.0576e-06 4.29704e-15 2.34568e-14)
(7.0576e-06 3.14898e-14 2.87674e-14)
(7.0576e-06 5.84296e-14 6.94055e-14)
(1.63219e-05 7.64681e-13 8.82977e-11)
(1.63219e-05 2.13643e-11 -5.68357e-12)
(1.6322e-05 3.23761e-12 1.79435e-11)
(1.6322e-05 1.23592e-12 7.71939e-13)
(1.63221e-05 3.7306e-12 4.31613e-12)
(1.63221e-05 4.31162e-12 9.29403e-12)
(1.63222e-05 2.67786e-12 4.28769e-12)
(1.63222e-05 2.46757e-12 3.7243e-12)
(1.63222e-05 2.10866e-12 3.337e-12)
(1.63222e-05 1.53863e-12 2.32333e-12)
(1.63222e-05 1.23394e-12 1.87008e-12)
(1.63222e-05 9.91793e-13 1.55916e-12)
(1.63222e-05 8.07005e-13 1.29176e-12)
(1.63222e-05 6.61741e-13 1.08089e-12)
(1.63222e-05 5.62261e-13 9.31219e-13)
(1.63222e-05 4.71384e-13 7.89913e-13)
(1.63222e-05 4.13892e-13 6.86006e-13)
(1.63223e-05 3.72609e-13 5.98626e-13)
(1.63223e-05 3.49498e-13 5.39309e-13)
(1.63223e-05 3.1433e-13 4.67864e-13)
(1.63223e-05 2.7643e-13 4.00213e-13)
(1.63223e-05 2.43593e-13 3.38338e-13)
(1.63223e-05 2.15769e-13 2.92295e-13)
(1.63223e-05 1.89746e-13 2.50142e-13)
(1.63223e-05 1.58613e-13 2.13163e-13)
(1.63223e-05 1.40024e-13 1.88073e-13)
(1.63223e-05 1.25671e-13 1.71472e-13)
(1.63223e-05 1.29649e-13 1.74657e-13)
(1.63223e-05 1.21099e-13 1.6578e-13)
(1.63223e-05 1.1294e-13 1.52963e-13)
(1.63223e-05 9.40004e-14 1.29178e-13)
(1.63223e-05 8.75124e-14 1.18809e-13)
(1.63223e-05 7.98523e-14 1.11294e-13)
(1.63223e-05 7.50796e-14 1.09261e-13)
(1.63223e-05 6.72329e-14 1.02905e-13)
(1.63223e-05 7.03274e-14 1.04289e-13)
(1.63223e-05 7.93576e-14 1.13818e-13)
(1.63223e-05 7.78325e-14 1.10324e-13)
(1.63223e-05 6.88657e-14 9.76137e-14)
(1.63223e-05 5.70758e-14 8.06e-14)
(1.63223e-05 5.37393e-14 7.75148e-14)
(1.63223e-05 6.06704e-14 8.67086e-14)
(1.63223e-05 5.78506e-14 8.58517e-14)
(1.63223e-05 4.61939e-14 6.99905e-14)
(1.63223e-05 3.57366e-14 5.52269e-14)
(1.63223e-05 2.71463e-14 4.1867e-14)
(1.63223e-05 3.11394e-14 4.34729e-14)
(1.63223e-05 1.98928e-14 3.49363e-14)
(1.63223e-05 2.36553e-14 3.70283e-14)
(1.63223e-05 2.11996e-14 3.74262e-14)
(1.63223e-05 4.17153e-14 6.40027e-14)
(1.63223e-05 3.57377e-14 5.76864e-14)
(1.63223e-05 2.84247e-14 5.0127e-14)
(1.63223e-05 9.64162e-15 1.89277e-14)
(1.63223e-05 9.37773e-15 1.74129e-14)
(1.63223e-05 9.51138e-15 1.69375e-14)
(1.63223e-05 2.96639e-14 4.50934e-14)
(1.63223e-05 2.39908e-14 3.79996e-14)
(1.63223e-05 1.90643e-14 3.20934e-14)
(1.63223e-05 -7.07569e-16 5.55016e-16)
(1.63223e-05 -7.21884e-16 -8.94729e-16)
(1.63223e-05 -1.10779e-14 -1.39225e-14)
(1.63223e-05 -3.69565e-16 3.75449e-15)
(1.63223e-05 -5.38696e-15 -2.1932e-15)
(1.63223e-05 4.33514e-15 1.20999e-14)
(1.63223e-05 -3.79609e-15 9.35759e-17)
(1.63223e-05 3.40032e-15 1.10685e-14)
(1.63223e-05 -5.74116e-15 -2.66848e-15)
(1.63223e-05 1.84153e-15 8.70449e-15)
(1.63223e-05 -6.39569e-15 -4.25616e-15)
(1.63223e-05 -1.96682e-15 4.29129e-15)
(1.63223e-05 -8.27395e-15 -8.79465e-15)
(1.63223e-05 2.06296e-15 4.9393e-15)
(1.63223e-05 3.95859e-15 5.65889e-15)
(1.63223e-05 1.31611e-14 2.2343e-14)
(1.63223e-05 5.46987e-15 1.238e-14)
(1.63223e-05 1.30632e-16 5.62491e-15)
(1.63223e-05 -1.43042e-14 -1.52878e-14)
(1.63223e-05 -1.46545e-14 -1.52099e-14)
(1.63223e-05 -9.13025e-15 -1.05562e-14)
(1.63223e-05 2.19249e-15 4.4579e-15)
(1.63223e-05 1.45572e-15 3.73079e-15)
(1.63223e-05 -4.2488e-15 -7.93504e-16)
(1.63223e-05 -1.29979e-14 -1.50193e-14)
(1.63223e-05 -1.2682e-14 -1.23437e-14)
(1.63223e-05 -7.73092e-15 -5.81851e-15)
(1.63223e-05 3.34557e-15 7.22481e-15)
(1.63223e-05 2.45634e-15 6.66789e-15)
(1.63223e-05 -1.1397e-15 2.70328e-15)
(1.63223e-05 -1.1901e-14 -1.28098e-14)
(1.63223e-05 -1.26149e-14 -1.1423e-14)
(1.63223e-05 -1.56338e-14 -1.52092e-14)
(1.63223e-05 -9.71128e-15 -3.34137e-15)
(1.63223e-05 -1.06203e-14 -5.08425e-15)
(1.63223e-05 -3.30628e-15 6.07405e-15)
(1.63223e-05 -9.29412e-15 -2.87803e-15)
(1.63223e-05 -8.98039e-15 1.15601e-14)
(1.63223e-05 -4.73338e-15 1.17433e-14)
(1.63223e-05 7.03843e-15 3.3157e-14)
(1.63223e-05 1.21456e-14 5.54892e-14)
(1.9153e-05 1.31519e-11 1.38878e-10)
(1.9153e-05 1.08637e-11 -1.30083e-11)
(1.91532e-05 1.28744e-11 3.5176e-11)
(1.91532e-05 1.00183e-11 2.16507e-12)
(1.91532e-05 8.16054e-12 5.21437e-12)
(1.91533e-05 6.83973e-12 1.23898e-11)
(1.91533e-05 4.88918e-12 5.56445e-12)
(1.91533e-05 3.63943e-12 4.6537e-12)
(1.91533e-05 2.74384e-12 4.20102e-12)
(1.91533e-05 2.06419e-12 2.90959e-12)
(1.91534e-05 1.60159e-12 2.28918e-12)
(1.91534e-05 1.28599e-12 1.90287e-12)
(1.91534e-05 1.05377e-12 1.54116e-12)
(1.91534e-05 8.78333e-13 1.28689e-12)
(1.91534e-05 7.31762e-13 1.08177e-12)
(1.91534e-05 6.11704e-13 9.28004e-13)
(1.91534e-05 5.10043e-13 7.83432e-13)
(1.91534e-05 4.32218e-13 6.90159e-13)
(1.91534e-05 3.68791e-13 5.94138e-13)
(1.91534e-05 3.20388e-13 5.2239e-13)
(1.91534e-05 2.74784e-13 4.36125e-13)
(1.91534e-05 2.3815e-13 3.78535e-13)
(1.91534e-05 2.06685e-13 3.21658e-13)
(1.91534e-05 1.88929e-13 2.87246e-13)
(1.91534e-05 1.7152e-13 2.49095e-13)
(1.91534e-05 1.62254e-13 2.25277e-13)
(1.91534e-05 1.52505e-13 2.10048e-13)
(1.91534e-05 1.41779e-13 2.05621e-13)
(1.91534e-05 1.36673e-13 1.99289e-13)
(1.91534e-05 1.33959e-13 1.8476e-13)
(1.91534e-05 1.36897e-13 1.65732e-13)
(1.91534e-05 1.35664e-13 1.57663e-13)
(1.91534e-05 1.32655e-13 1.45655e-13)
(1.91534e-05 1.24062e-13 1.45558e-13)
(1.91534e-05 1.15718e-13 1.3331e-13)
(1.91534e-05 1.03847e-13 1.35156e-13)
(1.91534e-05 9.44826e-14 1.31638e-13)
(1.91534e-05 9.18032e-14 1.32762e-13)
(1.91534e-05 8.87978e-14 1.12018e-13)
(1.91534e-05 8.61509e-14 1.03757e-13)
(1.91534e-05 8.48848e-14 9.3865e-14)
(1.91534e-05 7.7213e-14 1.0172e-13)
(1.91534e-05 7.91873e-14 9.87178e-14)
(1.91534e-05 8.2709e-14 9.76488e-14)
(1.91534e-05 9.22011e-14 7.87462e-14)
(1.91534e-05 9.48994e-14 8.6858e-14)
(1.91534e-05 9.21607e-14 6.37996e-14)
(1.91534e-05 8.27986e-14 7.50559e-14)
(1.91534e-05 7.21252e-14 5.2479e-14)
(1.91534e-05 6.248e-14 6.85238e-14)
(1.91534e-05 4.87869e-14 6.23813e-14)
(1.91534e-05 4.7039e-14 7.84846e-14)
(1.91534e-05 3.91621e-14 4.46104e-14)
(1.91534e-05 4.03809e-14 4.68033e-14)
(1.91534e-05 2.99802e-14 1.47473e-14)
(1.91534e-05 2.65671e-14 3.77437e-14)
(1.91534e-05 1.11279e-14 2.64554e-14)
(1.91534e-05 2.15765e-14 5.4635e-14)
(1.91534e-05 1.95726e-14 2.06238e-14)
(1.91534e-05 3.04201e-14 3.24438e-14)
(1.91534e-05 2.72315e-14 -1.15094e-15)
(1.91534e-05 2.30505e-14 2.31296e-14)
(1.91534e-05 1.44441e-14 3.87496e-16)
(1.91534e-05 7.95236e-15 2.65056e-14)
(1.91534e-05 2.79374e-16 1.77648e-15)
(1.91534e-05 -7.17476e-15 2.16325e-14)
(1.91534e-05 -1.7566e-14 -7.82191e-15)
(1.91534e-05 -2.30662e-14 9.91921e-15)
(1.91534e-05 -3.43895e-14 -1.6063e-14)
(1.91534e-05 -3.7906e-14 1.71098e-15)
(1.91534e-05 -4.85239e-14 -2.75355e-14)
(1.91534e-05 -5.19222e-14 -1.21152e-14)
(1.91534e-05 -5.95421e-14 -3.05177e-14)
(1.91534e-05 -6.32455e-14 -7.12412e-15)
(1.91534e-05 -7.15091e-14 -2.22464e-14)
(1.91534e-05 -6.55765e-14 -4.30336e-15)
(1.91534e-05 -5.91448e-14 -2.82532e-14)
(1.91534e-05 -4.77835e-14 -2.30145e-14)
(1.91534e-05 -4.3084e-14 -3.75022e-14)
(1.91534e-05 -3.81874e-14 -1.68892e-14)
(1.91534e-05 -4.23244e-14 -2.0645e-14)
(1.91534e-05 -3.38233e-14 -3.17657e-15)
(1.91534e-05 -2.6724e-14 -1.60462e-14)
(1.91534e-05 -1.33343e-14 -9.9795e-15)
(1.91534e-05 -9.23607e-15 -1.77867e-14)
(1.91534e-05 -3.3408e-15 -3.89938e-16)
(1.91534e-05 -6.69203e-15 -1.04188e-15)
(1.91534e-05 3.67902e-15 1.45704e-14)
(1.91534e-05 8.74161e-15 1.09609e-15)
(1.91534e-05 1.97239e-14 7.623e-15)
(1.91534e-05 2.3078e-14 -4.43869e-15)
(1.91534e-05 2.41118e-14 1.25789e-14)
(1.91534e-05 2.12736e-14 -1.59814e-16)
(1.91534e-05 1.91575e-14 2.10907e-14)
(1.91534e-05 1.62707e-14 8.66318e-15)
(1.91534e-05 1.19123e-14 1.44595e-14)
(1.91534e-05 1.04587e-14 2.07227e-14)
(1.91534e-05 3.74599e-15 3.22377e-14)
(1.91534e-05 2.37546e-15 5.18385e-14)
(1.91534e-05 4.23851e-15 7.40504e-14)
(1.63219e-05 1.39409e-11 8.98746e-11)
(1.63219e-05 -4.23005e-12 -8.01849e-12)
(1.6322e-05 1.49715e-11 1.76816e-11)
(1.6322e-05 1.33001e-11 -8.04928e-13)
(1.63221e-05 8.55659e-12 3.22398e-12)
(1.63221e-05 5.97224e-12 7.73621e-12)
(1.63221e-05 4.91615e-12 3.46147e-12)
(1.63222e-05 3.30922e-12 2.84292e-12)
(1.63222e-05 2.3636e-12 2.73318e-12)
(1.63222e-05 1.82616e-12 1.7911e-12)
(1.63222e-05 1.39455e-12 1.50235e-12)
(1.63222e-05 1.12828e-12 1.20947e-12)
(1.63222e-05 9.37991e-13 1.03876e-12)
(1.63222e-05 7.8696e-13 8.41962e-13)
(1.63222e-05 6.49294e-13 7.40729e-13)
(1.63222e-05 5.34064e-13 6.22717e-13)
(1.63222e-05 4.26211e-13 5.36901e-13)
(1.63223e-05 3.33115e-13 4.84783e-13)
(1.63223e-05 2.62508e-13 4.11698e-13)
(1.63223e-05 2.13871e-13 3.80774e-13)
(1.63223e-05 1.77699e-13 2.96473e-13)
(1.63223e-05 1.45697e-13 2.80915e-13)
(1.63223e-05 1.25508e-13 2.1435e-13)
(1.63223e-05 1.14175e-13 2.12311e-13)
(1.63223e-05 1.16333e-13 1.57008e-13)
(1.63223e-05 1.14264e-13 1.60789e-13)
(1.63223e-05 1.05897e-13 1.26674e-13)
(1.63223e-05 9.40649e-14 1.51562e-13)
(1.63223e-05 9.20124e-14 1.26006e-13)
(1.63223e-05 1.00745e-13 1.33285e-13)
(1.63223e-05 1.18711e-13 9.84824e-14)
(1.63223e-05 1.23579e-13 1.05679e-13)
(1.63223e-05 1.27777e-13 8.12347e-14)
(1.63223e-05 1.22983e-13 9.38047e-14)
(1.63223e-05 1.13408e-13 7.15711e-14)
(1.63223e-05 8.988e-14 9.6221e-14)
(1.63223e-05 7.53813e-14 8.14196e-14)
(1.63223e-05 6.68527e-14 9.93928e-14)
(1.63223e-05 7.64747e-14 6.24429e-14)
(1.63223e-05 7.80881e-14 7.82753e-14)
(1.63223e-05 7.39352e-14 4.39238e-14)
(1.63223e-05 6.89511e-14 8.5124e-14)
(1.63223e-05 7.14764e-14 4.85085e-14)
(1.63223e-05 9.07891e-14 7.58356e-14)
(1.63223e-05 1.10482e-13 2.63035e-14)
(1.63223e-05 1.21759e-13 5.49874e-14)
(1.63223e-05 1.22696e-13 1.51192e-14)
(1.63223e-05 1.18214e-13 4.20401e-14)
(1.63223e-05 9.9289e-14 8.67341e-15)
(1.63223e-05 6.99908e-14 5.0601e-14)
(1.63223e-05 4.34732e-14 3.34991e-14)
(1.63223e-05 3.92085e-14 6.82012e-14)
(1.63223e-05 4.70457e-14 1.31104e-14)
(1.63223e-05 5.53241e-14 3.5775e-14)
(1.63223e-05 4.34541e-14 -1.92799e-14)
(1.63223e-05 2.22341e-14 4.05108e-14)
(1.63223e-05 5.56434e-15 5.27513e-15)
(1.63223e-05 1.29904e-14 6.02284e-14)
(1.63223e-05 2.98672e-14 -9.80274e-15)
(1.63223e-05 4.98101e-14 3.03653e-14)
(1.63223e-05 4.82172e-14 -4.00435e-14)
(1.63223e-05 4.89316e-14 1.72473e-14)
(1.63223e-05 2.94755e-14 -3.02106e-14)
(1.63223e-05 2.29115e-14 2.14926e-14)
(1.63223e-05 3.70541e-15 -2.0545e-14)
(1.63223e-05 -3.8944e-15 2.06387e-14)
(1.63223e-05 -2.17286e-14 -2.05149e-14)
(1.63223e-05 -2.8852e-14 1.72564e-14)
(1.63223e-05 -4.7687e-14 -2.32462e-14)
(1.63223e-05 -5.1744e-14 1.1522e-14)
(1.63223e-05 -6.68685e-14 -2.93109e-14)
(1.63223e-05 -7.27246e-14 6.25233e-15)
(1.63223e-05 -9.38894e-14 -3.02868e-14)
(1.63223e-05 -1.06863e-13 2.4171e-14)
(1.63223e-05 -1.20261e-13 -1.59741e-14)
(1.63223e-05 -1.06386e-13 2.95269e-14)
(1.63223e-05 -8.29693e-14 -3.37577e-14)
(1.63223e-05 -6.05444e-14 1.28945e-15)
(1.63223e-05 -5.62831e-14 -4.67828e-14)
(1.63223e-05 -5.96637e-14 8.86599e-15)
(1.63223e-05 -6.42512e-14 -2.48514e-14)
(1.63223e-05 -5.11586e-14 1.71044e-14)
(1.63223e-05 -2.68348e-14 -2.73031e-14)
(1.63223e-05 -8.07227e-15 7.34798e-16)
(1.63223e-05 -1.38838e-15 -3.64279e-14)
(1.63223e-05 -4.98738e-15 1.18079e-14)
(1.63223e-05 -5.98524e-15 -1.51564e-14)
(1.63223e-05 5.53329e-15 2.21858e-14)
(1.63223e-05 2.62479e-14 -2.15098e-14)
(1.63223e-05 4.40732e-14 9.01124e-15)
(1.63223e-05 5.20563e-14 -3.56038e-14)
(1.63223e-05 5.49405e-14 8.24479e-15)
(1.63223e-05 4.71663e-14 -2.86709e-14)
(1.63223e-05 4.37947e-14 1.59835e-14)
(1.63223e-05 3.01351e-14 -1.74148e-14)
(1.63223e-05 2.95294e-14 1.46179e-14)
(1.63223e-05 2.26021e-14 -9.03599e-15)
(1.63223e-05 8.41836e-15 3.06717e-14)
(1.63223e-05 -1.10295e-14 2.17768e-14)
(1.63223e-05 -9.73741e-15 6.7241e-14)
(7.05749e-06 -1.66034e-10 1.77654e-10)
(7.05739e-06 8.58705e-11 -7.51882e-11)
(7.0575e-06 -2.65913e-11 3.65121e-11)
(7.05748e-06 1.27306e-11 -5.13938e-12)
(7.05752e-06 4.24906e-12 3.23558e-12)
(7.05753e-06 -1.99323e-12 6.81333e-12)
(7.05754e-06 2.05847e-12 1.52815e-12)
(7.05755e-06 4.37578e-13 2.00979e-12)
(7.05756e-06 -1.44049e-13 2.07242e-12)
(7.05757e-06 1.51028e-13 1.13052e-12)
(7.05757e-06 1.05201e-13 9.30327e-13)
(7.05757e-06 3.2487e-14 7.33311e-13)
(7.05758e-06 4.78168e-14 6.10376e-13)
(7.05758e-06 5.54721e-14 4.65503e-13)
(7.05758e-06 5.18299e-14 3.93585e-13)
(7.05758e-06 4.93619e-14 3.17706e-13)
(7.05758e-06 4.54399e-14 2.41697e-13)
(7.05759e-06 5.70768e-14 1.93868e-13)
(7.05759e-06 5.32804e-14 1.19872e-13)
(7.05759e-06 5.40429e-14 1.19753e-13)
(7.05759e-06 3.80275e-14 6.6038e-14)
(7.05759e-06 4.23352e-14 8.03271e-14)
(7.05759e-06 3.42368e-14 3.44664e-14)
(7.05759e-06 3.39617e-14 6.81222e-14)
(7.05759e-06 2.22677e-14 4.63669e-14)
(7.05759e-06 1.91285e-14 7.67674e-14)
(7.05759e-06 1.90218e-14 4.02407e-14)
(7.05759e-06 2.90468e-14 5.7013e-14)
(7.05759e-06 2.93243e-14 2.92015e-14)
(7.05759e-06 2.2273e-14 6.52234e-14)
(7.05759e-06 9.0063e-15 5.93106e-14)
(7.05759e-06 4.34098e-15 8.76202e-14)
(7.05759e-06 2.58497e-15 6.72234e-14)
(7.05759e-06 -5.13413e-15 9.16362e-14)
(7.05759e-06 -3.98776e-15 5.92072e-14)
(7.05759e-06 1.20052e-14 6.42052e-14)
(7.05759e-06 1.90227e-14 2.22202e-14)
(7.05759e-06 2.26639e-14 4.74687e-14)
(7.05759e-06 6.78778e-15 2.65986e-14)
(7.05759e-06 3.25543e-15 6.24427e-14)
(7.0576e-06 -2.11188e-15 1.95055e-14)
(7.0576e-06 1.53196e-14 4.77193e-14)
(7.0576e-06 9.6336e-15 1.21884e-14)
(7.0576e-06 5.83938e-15 7.34366e-14)
(7.0576e-06 -1.66047e-14 5.72502e-14)
(7.0576e-06 -1.57157e-14 1.05954e-13)
(7.0576e-06 -2.17569e-14 6.73992e-14)
(7.0576e-06 -2.52654e-14 1.06686e-13)
(7.0576e-06 -2.71397e-14 5.24165e-14)
(7.0576e-06 3.69696e-15 6.23634e-14)
(7.0576e-06 1.08287e-14 -2.75374e-15)
(7.0576e-06 1.88817e-14 4.21152e-14)
(7.0576e-06 -8.62452e-15 7.91142e-15)
(7.0576e-06 -1.54961e-14 6.93443e-14)
(7.0576e-06 -2.94232e-14 4.23333e-15)
(7.0576e-06 6.98236e-15 3.77295e-14)
(7.0576e-06 7.94707e-15 -3.58085e-14)
(7.0576e-06 1.85037e-14 3.39936e-14)
(7.0576e-06 -1.36979e-14 -1.12894e-14)
(7.0576e-06 -1.20893e-14 7.0745e-14)
(7.0576e-06 -3.2868e-14 8.39733e-15)
(7.0576e-06 -1.45845e-14 6.77702e-14)