/*--------------------------------*- C++ -*----------------------------------*\
| =========                 |                                                 |
| \\      /  F ield         | OpenFOAM: The Open Source CFD Toolbox           |
|  \\    /   O peration     | Version:  2412                                  |
|   \\  /    A nd           | Website:  www.openfoam.com                      |
|    \\/     M anipulation  |                                                 |
\*---------------------------------------------------------------------------*/
FoamFile
{
    version     2.0;
    format      ascii;
    arch        "LSB;label=32;scalar=64";
    class       volScalarField;
    location    "3e-05";
    object      p;
}
// * * * * * * * * * * * * * * * * * * * * * * * * * * * * * * * * * * * * * //

dimensions      [0 2 -2 0 0 0 0];

internalField   nonuniform List<scalar> 
96800
(
0.000989641
0.00097068
0.000949552
0.000930671
0.000909464
0.000890735
0.000869306
0.000850954
0.000828948
0.000811386
0.000788475
0.000771738
0.000748371
0.000731498
0.000708899
0.000690804
0.000669577
0.00065026
0.000629931
0.000610061
0.000590019
0.000570024
0.000550026
0.000530019
0.000510023
0.000490016
0.00047002
0.000450013
0.000430017
0.000410009
0.000390014
0.000370006
0.00035001
0.000330003
0.000310005
0.000290002
0.000269998
0.000250001
0.000229991
0.00021
0.000189985
0.000169996
0.000149978
0.000129991
0.00010997
8.99845e-05
6.99604e-05
4.99769e-05
2.99538e-05
9.97675e-06
0.000989644
0.000970681
0.00094955
0.000930674
0.000909461
0.000890739
0.000869301
0.000850961
0.000828935
0.000811405
0.000788453
0.000771759
0.000748353
0.000731512
0.000708891
0.000690808
0.000669575
0.000650261
0.000629931
0.000610061
0.000590019
0.000570024
0.000550026
0.000530019
0.000510023
0.000490016
0.00047002
0.000450013
0.000430017
0.000410009
0.000390014
0.000370006
0.00035001
0.000330003
0.000310005
0.000290002
0.000269998
0.000250001
0.000229991
0.00021
0.000189984
0.000169996
0.000149978
0.000129991
0.00010997
8.99846e-05
6.99603e-05
4.9977e-05
2.99537e-05
9.9769e-06
0.000989648
0.000970681
0.00094955
0.000930673
0.000909462
0.000890738
0.000869303
0.000850961
0.000828932
0.000811412
0.000788444
0.000771771
0.000748338
0.000731526
0.000708879
0.000690818
0.000669569
0.000650264
0.00062993
0.000610062
0.000590019
0.000570024
0.000550026
0.000530019
0.000510023
0.000490016
0.00047002
0.000450013
0.000430017
0.000410009
0.000390014
0.000370006
0.00035001
0.000330003
0.000310005
0.000290002
0.000269998
0.000250001
0.000229991
0.00021
0.000189984
0.000169997
0.000149978
0.000129991
0.00010997
8.99847e-05
6.99603e-05
4.99771e-05
2.99536e-05
9.97665e-06
0.000989646
0.000970683
0.00094955
0.000930673
0.000909463
0.000890736
0.000869305
0.000850958
0.000828935
0.00081141
0.000788443
0.000771776
0.000748329
0.000731537
0.000708868
0.000690826
0.000669562
0.000650268
0.000629928
0.000610062
0.000590018
0.000570024
0.000550026
0.000530019
0.000510023
0.000490016
0.00047002
0.000450013
0.000430017
0.000410009
0.000390014
0.000370006
0.00035001
0.000330003
0.000310005
0.000290002
0.000269998
0.000250002
0.000229991
0.00021
0.000189984
0.000169997
0.000149978
0.000129992
0.00010997
8.99848e-05
6.99603e-05
4.99772e-05
2.99535e-05
9.97631e-06
0.000989643
0.000970686
0.000949548
0.000930675
0.000909462
0.000890736
0.000869306
0.000850956
0.000828938
0.000811407
0.000788444
0.000771777
0.000748325
0.000731544
0.000708859
0.000690834
0.000669557
0.000650271
0.000629926
0.000610063
0.000590018
0.000570024
0.000550026
0.000530019
0.000510023
0.000490016
0.00047002
0.000450013
0.000430017
0.000410009
0.000390014
0.000370006
0.00035001
0.000330003
0.000310005
0.000290002
0.000269998
0.000250002
0.000229991
0.00021
0.000189984
0.000169997
0.000149978
0.000129992
0.00010997
8.99849e-05
6.99603e-05
4.99772e-05
2.99532e-05
9.97595e-06
0.000989644
0.000970687
0.000949547
0.000930675
0.000909461
0.000890737
0.000869307
0.000850954
0.000828941
0.000811404
0.000788446
0.000771777
0.000748321
0.000731549
0.000708853
0.00069084
0.000669552
0.000650274
0.000629924
0.000610064
0.000590018
0.000570025
0.000550026
0.000530019
0.000510023
0.000490016
0.00047002
0.000450013
0.000430017
0.000410009
0.000390014
0.000370006
0.00035001
0.000330003
0.000310005
0.000290002
0.000269998
0.000250002
0.000229991
0.00021
0.000189984
0.000169997
0.000149978
0.000129992
0.00010997
8.99849e-05
6.99603e-05
4.99772e-05
2.9953e-05
9.97556e-06
0.000989644
0.000970689
0.000949547
0.000930675
0.000909461
0.000890736
0.000869308
0.000850953
0.000828944
0.000811401
0.000788449
0.000771776
0.00074832
0.000731554
0.000708847
0.000690846
0.000669547
0.000650277
0.000629922
0.000610065
0.000590018
0.000570025
0.000550026
0.000530019
0.000510023
0.000490016
0.00047002
0.000450013
0.000430017
0.000410009
0.000390014
0.000370006
0.00035001
0.000330003
0.000310005
0.000290002
0.000269998
0.000250002
0.000229991
0.00021
0.000189984
0.000169997
0.000149978
0.000129992
0.00010997
8.99849e-05
6.99602e-05
4.99772e-05
2.99526e-05
9.97517e-06
0.000989644
0.00097069
0.000949547
0.000930675
0.000909461
0.000890736
0.000869309
0.000850951
0.000828947
0.000811397
0.000788452
0.000771775
0.000748318
0.000731557
0.000708842
0.000690851
0.000669543
0.00065028
0.000629921
0.000610065
0.000590017
0.000570025
0.000550026
0.000530019
0.000510023
0.000490016
0.00047002
0.000450013
0.000430017
0.000410009
0.000390014
0.000370006
0.00035001
0.000330003
0.000310005
0.000290002
0.000269998
0.000250002
0.000229991
0.00021
0.000189984
0.000169997
0.000149978
0.000129992
0.00010997
8.9985e-05
6.99602e-05
4.99772e-05
2.99522e-05
9.97477e-06
0.000989643
0.000970692
0.000949546
0.000930675
0.000909461
0.000890736
0.000869309
0.000850949
0.00082895
0.000811393
0.000788456
0.000771773
0.000748318
0.00073156
0.000708837
0.000690855
0.000669539
0.000650282
0.00062992
0.000610066
0.000590017
0.000570025
0.000550026
0.000530019
0.000510023
0.000490016
0.00047002
0.000450013
0.000430017
0.000410009
0.000390014
0.000370006
0.00035001
0.000330003
0.000310005
0.000290002
0.000269998
0.000250002
0.000229991
0.00021
0.000189984
0.000169997
0.000149978
0.000129992
0.00010997
8.9985e-05
6.99601e-05
4.99772e-05
2.99518e-05
9.97438e-06
0.000989641
0.000970693
0.000949545
0.000930676
0.000909461
0.000890736
0.00086931
0.000850947
0.000828952
0.00081139
0.000788459
0.00077177
0.000748318
0.000731563
0.000708833
0.00069086
0.000669536
0.000650285
0.000629918
0.000610066
0.000590017
0.000570025
0.000550026
0.000530019
0.000510023
0.000490016
0.00047002
0.000450013
0.000430017
0.000410009
0.000390014
0.000370006
0.00035001
0.000330003
0.000310005
0.000290002
0.000269998
0.000250002
0.000229991
0.00021
0.000189984
0.000169997
0.000149978
0.000129992
0.00010997
8.9985e-05
6.99601e-05
4.99772e-05
2.99514e-05
9.97401e-06
0.000989639
0.000970694
0.000949544
0.000930676
0.000909461
0.000890736
0.000869311
0.000850946
0.000828955
0.000811386
0.000788463
0.000771768
0.000748318
0.000731565
0.00070883
0.000690863
0.000669533
0.000650287
0.000629917
0.000610067
0.000590017
0.000570025
0.000550026
0.000530019
0.000510023
0.000490016
0.00047002
0.000450013
0.000430017
0.000410009
0.000390014
0.000370006
0.00035001
0.000330003
0.000310005
0.000290002
0.000269998
0.000250002
0.000229991
0.00021
0.000189984
0.000169997
0.000149978
0.000129992
0.00010997
8.9985e-05
6.996e-05
4.99771e-05
2.99509e-05
9.97366e-06
0.000989637
0.000970695
0.000949544
0.000930676
0.00090946
0.000890736
0.000869311
0.000850945
0.000828958
0.000811383
0.000788466
0.000771766
0.000748318
0.000731567
0.000708827
0.000690867
0.00066953
0.000650289
0.000629916
0.000610067
0.000590016
0.000570025
0.000550026
0.000530019
0.000510023
0.000490016
0.00047002
0.000450013
0.000430017
0.000410009
0.000390014
0.000370006
0.00035001
0.000330003
0.000310005
0.000290002
0.000269998
0.000250002
0.000229991
0.00021
0.000189984
0.000169997
0.000149978
0.000129992
0.00010997
8.9985e-05
6.996e-05
4.99771e-05
2.99505e-05
9.97333e-06
0.000989634
0.000970696
0.000949543
0.000930676
0.00090946
0.000890736
0.000869312
0.000850943
0.00082896
0.00081138
0.000788469
0.000771764
0.000748318
0.000731568
0.000708824
0.00069087
0.000669527
0.000650291
0.000629915
0.000610068
0.000590016
0.000570025
0.000550026
0.000530019
0.000510023
0.000490016
0.00047002
0.000450013
0.000430017
0.000410009
0.000390014
0.000370006
0.00035001
0.000330003
0.000310005
0.000290002
0.000269998
0.000250002
0.000229991
0.00021
0.000189984
0.000169997
0.000149978
0.000129992
0.00010997
8.9985e-05
6.99599e-05
4.9977e-05
2.995e-05
9.97302e-06
0.000989631
0.000970697
0.000949542
0.000930676
0.000909459
0.000890736
0.000869312
0.000850942
0.000828962
0.000811377
0.000788472
0.000771762
0.000748319
0.00073157
0.000708821
0.000690873
0.000669525
0.000650292
0.000629914
0.000610068
0.000590016
0.000570025
0.000550026
0.000530019
0.000510023
0.000490016
0.00047002
0.000450013
0.000430017
0.000410009
0.000390014
0.000370006
0.00035001
0.000330003
0.000310005
0.000290002
0.000269998
0.000250002
0.000229991
0.00021
0.000189984
0.000169997
0.000149978
0.000129992
0.00010997
8.9985e-05
6.99599e-05
4.9977e-05
2.99496e-05
9.97274e-06
0.000989628
0.000970698
0.000949541
0.000930676
0.000909459
0.000890736
0.000869312
0.000850941
0.000828964
0.000811375
0.000788475
0.00077176
0.000748319
0.000731571
0.000708819
0.000690875
0.000669523
0.000650294
0.000629913
0.000610069
0.000590016
0.000570025
0.000550026
0.000530019
0.000510023
0.000490016
0.00047002
0.000450013
0.000430017
0.000410009
0.000390014
0.000370006
0.00035001
0.000330003
0.000310005
0.000290002
0.000269998
0.000250002
0.000229991
0.00021
0.000189984
0.000169997
0.000149978
0.000129992
0.00010997
8.9985e-05
6.99598e-05
4.99769e-05
2.99492e-05
9.97249e-06
0.000989625
0.000970698
0.00094954
0.000930676
0.000909459
0.000890736
0.000869313
0.000850941
0.000828965
0.000811373
0.000788477
0.000771758
0.00074832
0.000731572
0.000708817
0.000690877
0.000669521
0.000650295
0.000629912
0.000610069
0.000590016
0.000570025
0.000550026
0.000530019
0.000510023
0.000490016
0.00047002
0.000450013
0.000430017
0.000410009
0.000390014
0.000370006
0.00035001
0.000330003
0.000310005
0.000290002
0.000269998
0.000250002
0.000229991
0.00021
0.000189984
0.000169997
0.000149978
0.000129992
0.00010997
8.9985e-05
6.99597e-05
4.99769e-05
2.99489e-05
9.97227e-06
0.000989621
0.000970699
0.000949539
0.000930676
0.000909459
0.000890736
0.000869313
0.00085094
0.000828967
0.000811371
0.000788479
0.000771757
0.00074832
0.000731572
0.000708816
0.000690879
0.000669519
0.000650296
0.000629912
0.000610069
0.000590016
0.000570025
0.000550026
0.000530019
0.000510023
0.000490016
0.00047002
0.000450013
0.000430017
0.000410009
0.000390014
0.000370006
0.00035001
0.000330003
0.000310005
0.000290002
0.000269998
0.000250002
0.000229991
0.00021
0.000189984
0.000169997
0.000149978
0.000129992
0.00010997
8.9985e-05
6.99597e-05
4.99768e-05
2.99485e-05
9.97208e-06
0.000989618
0.000970699
0.000949538
0.000930676
0.000909458
0.000890736
0.000869313
0.000850939
0.000828968
0.00081137
0.00078848
0.000771756
0.000748321
0.000731573
0.000708814
0.000690881
0.000669518
0.000650297
0.000629911
0.00061007
0.000590015
0.000570025
0.000550026
0.000530019
0.000510023
0.000490016
0.00047002
0.000450013
0.000430017
0.000410009
0.000390014
0.000370006
0.00035001
0.000330003
0.000310005
0.000290002
0.000269998
0.000250002
0.000229991
0.00021
0.000189984
0.000169997
0.000149978
0.000129992
0.00010997
8.9985e-05
6.99596e-05
4.99768e-05
2.99482e-05
9.97193e-06
0.000989616
0.0009707
0.000949537
0.000930676
0.000909458
0.000890736
0.000869313
0.000850939
0.000828968
0.000811369
0.000788482
0.000771755
0.000748321
0.000731573
0.000708813
0.000690882
0.000669517
0.000650298
0.000629911
0.00061007
0.000590015
0.000570025
0.000550026
0.000530019
0.000510023
0.000490016
0.00047002
0.000450013
0.000430017
0.000410009
0.000390014
0.000370006
0.00035001
0.000330003
0.000310005
0.000290002
0.000269998
0.000250002
0.000229991
0.00021
0.000189984
0.000169997
0.000149978
0.000129992
0.00010997
8.99849e-05
6.99596e-05
4.99768e-05
2.9948e-05
9.9718e-06
0.000989613
0.0009707
0.000949536
0.000930675
0.000909458
0.000890736
0.000869313
0.000850939
0.000828969
0.000811368
0.000788483
0.000771754
0.000748321
0.000731574
0.000708813
0.000690883
0.000669516
0.000650298
0.00062991
0.00061007
0.000590015
0.000570025
0.000550026
0.000530019
0.000510023
0.000490016
0.00047002
0.000450013
0.000430017
0.000410009
0.000390014
0.000370006
0.00035001
0.000330003
0.000310005
0.000290002
0.000269998
0.000250002
0.000229991
0.00021
0.000189984
0.000169997
0.000149977
0.000129992
0.00010997
8.99849e-05
6.99595e-05
4.99767e-05
2.99478e-05
9.97171e-06
0.000989612
0.0009707
0.000949536
0.000930675
0.000909458
0.000890736
0.000869313
0.000850938
0.000828969
0.000811368
0.000788483
0.000771754
0.000748322
0.000731574
0.000708812
0.000690883
0.000669515
0.000650299
0.00062991
0.00061007
0.000590015
0.000570025
0.000550026
0.000530019
0.000510023
0.000490016
0.00047002
0.000450013
0.000430017
0.000410009
0.000390014
0.000370006
0.00035001
0.000330003
0.000310005
0.000290002
0.000269998
0.000250002
0.000229991
0.00021
0.000189984
0.000169997
0.000149977
0.000129992
0.00010997
8.99849e-05
6.99595e-05
4.99767e-05
2.99476e-05
9.97165e-06
0.000989611
0.0009707
0.000949535
0.000930675
0.000909458
0.000890736
0.000869313
0.000850939
0.00082897
0.000811367
0.000788484
0.000771753
0.000748322
0.000731574
0.000708812
0.000690884
0.000669515
0.000650299
0.00062991
0.00061007
0.000590015
0.000570025
0.000550026
0.000530019
0.000510023
0.000490016
0.00047002
0.000450013
0.000430017
0.000410009
0.000390014
0.000370006
0.00035001
0.000330003
0.000310005
0.000290002
0.000269998
0.000250002
0.000229991
0.00021
0.000189984
0.000169997
0.000149977
0.000129992
0.000109969
8.99849e-05
6.99595e-05
4.99767e-05
2.99476e-05
9.97163e-06
0.00098961
0.0009707
0.000949535
0.000930675
0.000909457
0.000890736
0.000869313
0.000850939
0.000828969
0.000811368
0.000788484
0.000771753
0.000748322
0.000731573
0.000708812
0.000690884
0.000669515
0.000650299
0.00062991
0.00061007
0.000590015
0.000570025
0.000550026
0.000530019
0.000510023
0.000490016
0.00047002
0.000450013
0.000430017
0.000410009
0.000390014
0.000370006
0.00035001
0.000330003
0.000310005
0.000290002
0.000269998
0.000250002
0.000229991
0.00021
0.000189984
0.000169997
0.000149977
0.000129992
0.000109969
8.99848e-05
6.99595e-05
4.99766e-05
2.99476e-05
9.97164e-06
0.000989611
0.000970699
0.000949535
0.000930674
0.000909457
0.000890736
0.000869313
0.000850939
0.000828969
0.000811368
0.000788483
0.000771753
0.000748322
0.000731573
0.000708813
0.000690883
0.000669515
0.000650299
0.00062991
0.00061007
0.000590015
0.000570025
0.000550026
0.000530019
0.000510023
0.000490016
0.00047002
0.000450013
0.000430017
0.000410009
0.000390014
0.000370006
0.00035001
0.000330003
0.000310005
0.000290002
0.000269998
0.000250002
0.000229991
0.00021
0.000189984
0.000169997
0.000149977
0.000129992
0.000109969
8.99848e-05
6.99595e-05
4.99766e-05
2.99477e-05
9.97168e-06
0.000989612
0.000970699
0.000949535
0.000930674
0.000909457
0.000890736
0.000869312
0.00085094
0.000828968
0.000811369
0.000788483
0.000771754
0.000748322
0.000731573
0.000708813
0.000690883
0.000669516
0.000650298
0.00062991
0.00061007
0.000590015
0.000570025
0.000550026
0.000530019
0.000510023
0.000490016
0.00047002
0.000450013
0.000430017
0.000410009
0.000390014
0.000370006
0.00035001
0.000330003
0.000310005
0.000290002
0.000269998
0.000250002
0.000229991
0.00021
0.000189984
0.000169997
0.000149977
0.000129992
0.000109969
8.99848e-05
6.99595e-05
4.99766e-05
2.99478e-05
9.97176e-06
0.000989613
0.000970698
0.000949535
0.000930674
0.000909457
0.000890736
0.000869312
0.00085094
0.000828968
0.00081137
0.000788482
0.000771754
0.000748322
0.000731572
0.000708814
0.000690882
0.000669517
0.000650298
0.000629911
0.00061007
0.000590015
0.000570025
0.000550026
0.000530019
0.000510023
0.000490016
0.00047002
0.000450013
0.000430017
0.000410009
0.000390014
0.000370006
0.00035001
0.000330003
0.000310005
0.000290002
0.000269998
0.000250002
0.000229991
0.00021
0.000189984
0.000169997
0.000149977
0.000129992
0.000109969
8.99848e-05
6.99595e-05
4.99766e-05
2.99479e-05
9.97187e-06
0.000989615
0.000970698
0.000949535
0.000930673
0.000909457
0.000890736
0.000869312
0.000850941
0.000828966
0.000811371
0.00078848
0.000771755
0.000748322
0.000731572
0.000708815
0.00069088
0.000669518
0.000650297
0.000629911
0.00061007
0.000590015
0.000570025
0.000550026
0.000530019
0.000510023
0.000490016
0.00047002
0.000450013
0.000430017
0.000410009
0.000390014
0.000370006
0.00035001
0.000330003
0.000310005
0.000290002
0.000269998
0.000250002
0.000229991
0.00021
0.000189984
0.000169997
0.000149977
0.000129992
0.000109969
8.99847e-05
6.99595e-05
4.99766e-05
2.99482e-05
9.97201e-06
0.000989617
0.000970697
0.000949536
0.000930673
0.000909458
0.000890736
0.000869311
0.000850942
0.000828965
0.000811373
0.000788479
0.000771756
0.000748322
0.000731571
0.000708817
0.000690879
0.000669519
0.000650296
0.000629911
0.000610069
0.000590016
0.000570025
0.000550026
0.000530019
0.000510023
0.000490016
0.00047002
0.000450013
0.000430017
0.000410009
0.000390014
0.000370006
0.00035001
0.000330003
0.000310005
0.000290002
0.000269998
0.000250002
0.000229991
0.00021
0.000189984
0.000169997
0.000149977
0.000129992
0.000109969
8.99847e-05
6.99595e-05
4.99767e-05
2.99485e-05
9.97218e-06
0.000989619
0.000970696
0.000949536
0.000930673
0.000909458
0.000890736
0.000869311
0.000850943
0.000828963
0.000811375
0.000788477
0.000771758
0.000748322
0.00073157
0.000708819
0.000690877
0.000669521
0.000650295
0.000629912
0.000610069
0.000590016
0.000570025
0.000550026
0.000530019
0.000510023
0.000490016
0.00047002
0.000450013
0.000430017
0.000410009
0.000390014
0.000370006
0.00035001
0.000330003
0.000310005
0.000290002
0.000269998
0.000250002
0.000229991
0.00021
0.000189984
0.000169997
0.000149977
0.000129992
0.000109969
8.99847e-05
6.99596e-05
4.99767e-05
2.99489e-05
9.97239e-06
0.000989621
0.000970694
0.000949537
0.000930673
0.000909458
0.000890736
0.000869311
0.000850944
0.000828962
0.000811377
0.000788475
0.000771759
0.000748322
0.000731569
0.000708821
0.000690875
0.000669523
0.000650294
0.000629913
0.000610069
0.000590016
0.000570025
0.000550026
0.000530019
0.000510023
0.000490016
0.00047002
0.000450013
0.000430017
0.000410009
0.000390014
0.000370006
0.00035001
0.000330003
0.000310005
0.000290002
0.000269998
0.000250002
0.000229991
0.00021
0.000189984
0.000169997
0.000149977
0.000129991
0.000109969
8.99847e-05
6.99596e-05
4.99767e-05
2.99492e-05
9.97263e-06
0.000989623
0.000970693
0.000949537
0.000930672
0.000909458
0.000890736
0.00086931
0.000850945
0.00082896
0.00081138
0.000788472
0.000771761
0.000748322
0.000731567
0.000708823
0.000690872
0.000669525
0.000650293
0.000629914
0.000610069
0.000590016
0.000570025
0.000550026
0.000530019
0.000510023
0.000490016
0.00047002
0.000450013
0.000430017
0.000410009
0.000390014
0.000370006
0.00035001
0.000330003
0.000310005
0.000290002
0.000269998
0.000250002
0.000229991
0.00021
0.000189984
0.000169997
0.000149977
0.000129991
0.000109969
8.99846e-05
6.99596e-05
4.99767e-05
2.99497e-05
9.97289e-06
0.000989625
0.000970691
0.000949538
0.000930672
0.000909458
0.000890736
0.00086931
0.000850947
0.000828957
0.000811383
0.000788469
0.000771763
0.000748321
0.000731566
0.000708826
0.000690869
0.000669527
0.000650291
0.000629914
0.000610068
0.000590016
0.000570025
0.000550026
0.000530019
0.000510023
0.000490016
0.00047002
0.000450013
0.000430017
0.000410009
0.000390014
0.000370006
0.00035001
0.000330003
0.000310005
0.000290002
0.000269998
0.000250002
0.000229991
0.00021
0.000189984
0.000169997
0.000149977
0.000129991
0.000109969
8.99846e-05
6.99597e-05
4.99768e-05
2.99501e-05
9.97318e-06
0.000989627
0.000970689
0.000949538
0.000930672
0.000909459
0.000890736
0.000869309
0.000850948
0.000828955
0.000811386
0.000788466
0.000771765
0.000748321
0.000731564
0.000708829
0.000690866
0.00066953
0.000650289
0.000629915
0.000610068
0.000590016
0.000570025
0.000550026
0.000530019
0.000510023
0.000490016
0.00047002
0.000450013
0.000430017
0.000410009
0.000390014
0.000370006
0.00035001
0.000330003
0.000310005
0.000290002
0.000269998
0.000250002
0.000229991
0.00021
0.000189984
0.000169997
0.000149977
0.000129991
0.000109969
8.99846e-05
6.99597e-05
4.99768e-05
2.99505e-05
9.9735e-06
0.000989628
0.000970687
0.000949538
0.000930672
0.000909459
0.000890736
0.000869308
0.00085095
0.000828952
0.000811389
0.000788463
0.000771767
0.000748321
0.000731562
0.000708832
0.000690862
0.000669533
0.000650287
0.000629916
0.000610067
0.000590016
0.000570025
0.000550026
0.000530019
0.000510023
0.000490016
0.00047002
0.000450013
0.000430017
0.000410009
0.000390014
0.000370006
0.00035001
0.000330003
0.000310005
0.000290002
0.000269998
0.000250002
0.000229991
0.00021
0.000189984
0.000169997
0.000149977
0.000129991
0.000109969
8.99846e-05
6.99598e-05
4.99768e-05
2.9951e-05
9.97384e-06
0.000989628
0.000970685
0.000949539
0.000930671
0.000909459
0.000890736
0.000869307
0.000850951
0.000828949
0.000811393
0.00078846
0.000771769
0.000748322
0.000731559
0.000708836
0.000690859
0.000669536
0.000650285
0.000629918
0.000610067
0.000590017
0.000570025
0.000550026
0.000530019
0.000510023
0.000490016
0.00047002
0.000450013
0.000430017
0.000410009
0.000390014
0.000370006
0.00035001
0.000330003
0.000310005
0.000290002
0.000269998
0.000250002
0.000229991
0.00021
0.000189984
0.000169997
0.000149977
0.000129991
0.000109969
8.99845e-05
6.99598e-05
4.99769e-05
2.99515e-05
9.9742e-06
0.000989629
0.000970683
0.000949539
0.000930671
0.000909459
0.000890736
0.000869307
0.000850953
0.000828946
0.000811397
0.000788456
0.000771771
0.000748322
0.000731557
0.00070884
0.000690854
0.000669539
0.000650283
0.000629919
0.000610066
0.000590017
0.000570025
0.000550026
0.000530019
0.000510023
0.000490016
0.00047002
0.000450013
0.000430017
0.000410009
0.000390014
0.000370006
0.00035001
0.000330003
0.000310005
0.000290002
0.000269998
0.000250002
0.000229991
0.00021
0.000189984
0.000169997
0.000149977
0.000129991
0.000109969
8.99845e-05
6.99598e-05
4.99769e-05
2.99519e-05
9.97458e-06
0.000989629
0.000970681
0.000949539
0.000930671
0.000909459
0.000890737
0.000869305
0.000850955
0.000828943
0.0008114
0.000788453
0.000771772
0.000748323
0.000731553
0.000708845
0.00069085
0.000669543
0.00065028
0.00062992
0.000610066
0.000590017
0.000570025
0.000550026
0.000530019
0.000510023
0.000490016
0.00047002
0.000450013
0.000430017
0.000410009
0.000390014
0.000370006
0.00035001
0.000330003
0.000310005
0.000290002
0.000269998
0.000250002
0.000229991
0.00021
0.000189984
0.000169997
0.000149977
0.000129991
0.000109969
8.99845e-05
6.99599e-05
4.99769e-05
2.99524e-05
9.97497e-06
0.000989629
0.000970679
0.000949539
0.000930671
0.000909459
0.000890737
0.000869304
0.000850957
0.00082894
0.000811404
0.00078845
0.000771774
0.000748325
0.00073155
0.00070885
0.000690845
0.000669547
0.000650278
0.000629922
0.000610065
0.000590017
0.000570025
0.000550026
0.000530019
0.000510023
0.000490016
0.00047002
0.000450013
0.000430017
0.000410009
0.000390014
0.000370006
0.00035001
0.000330003
0.000310005
0.000290002
0.000269998
0.000250002
0.000229991
0.00021
0.000189984
0.000169997
0.000149977
0.000129991
0.000109969
8.99845e-05
6.99599e-05
4.99769e-05
2.99528e-05
9.97536e-06
0.000989628
0.000970677
0.000949539
0.000930671
0.000909459
0.000890737
0.000869303
0.000850959
0.000828938
0.000811407
0.000788448
0.000771774
0.000748327
0.000731545
0.000708856
0.000690839
0.000669551
0.000650275
0.000629923
0.000610064
0.000590018
0.000570025
0.000550026
0.000530019
0.000510023
0.000490016
0.00047002
0.000450013
0.000430017
0.000410009
0.000390014
0.000370006
0.00035001
0.000330003
0.000310005
0.000290002
0.000269998
0.000250002
0.000229991
0.00021
0.000189984
0.000169997
0.000149977
0.000129991
0.000109969
8.99844e-05
6.99599e-05
4.99769e-05
2.99532e-05
9.97576e-06
0.000989627
0.000970675
0.000949539
0.00093067
0.000909459
0.000890737
0.000869303
0.000850961
0.000828935
0.00081141
0.000788446
0.000771774
0.00074833
0.000731539
0.000708862
0.000690833
0.000669556
0.000650272
0.000629925
0.000610064
0.000590018
0.000570025
0.000550026
0.000530019
0.000510023
0.000490016
0.00047002
0.000450013
0.000430017
0.000410009
0.000390014
0.000370006
0.00035001
0.000330003
0.000310005
0.000290002
0.000269998
0.000250002
0.000229991
0.00021
0.000189984
0.000169997
0.000149977
0.000129991
0.000109969
8.99844e-05
6.996e-05
4.99769e-05
2.99536e-05
9.97614e-06
0.00098963
0.000970672
0.000949541
0.000930669
0.00090946
0.000890737
0.000869302
0.000850963
0.000828932
0.000811413
0.000788445
0.000771772
0.000748335
0.000731532
0.000708871
0.000690825
0.000669562
0.000650269
0.000629927
0.000610063
0.000590018
0.000570025
0.000550026
0.000530019
0.000510023
0.000490016
0.00047002
0.000450013
0.000430017
0.000410009
0.000390014
0.000370006
0.00035001
0.000330003
0.000310005
0.000290002
0.000269998
0.000250002
0.000229991
0.00021
0.000189984
0.000169997
0.000149977
0.000129991
0.000109969
8.99843e-05
6.996e-05
4.99769e-05
2.99538e-05
9.9765e-06
0.000989632
0.00097067
0.000949541
0.000930669
0.000909459
0.000890739
0.000869299
0.000850966
0.000828929
0.000811414
0.000788446
0.000771767
0.000748344
0.000731521
0.000708882
0.000690817
0.000669568
0.000650265
0.000629929
0.000610062
0.000590018
0.000570024
0.000550026
0.000530019
0.000510023
0.000490016
0.00047002
0.000450013
0.000430017
0.000410009
0.000390014
0.000370006
0.00035001
0.000330003
0.000310005
0.000290002
0.000269998
0.000250002
0.000229991
0.00021
0.000189984
0.000169997
0.000149977
0.000129991
0.000109969
8.99843e-05
6.996e-05
4.99769e-05
2.9954e-05
9.97683e-06
0.000989628
0.00097067
0.000949541
0.000930669
0.000909458
0.00089074
0.000869298
0.000850966
0.000828932
0.000811408
0.000788455
0.000771755
0.000748359
0.000731507
0.000708894
0.000690807
0.000669574
0.000650262
0.00062993
0.000610061
0.000590019
0.000570024
0.000550026
0.000530019
0.000510023
0.000490016
0.00047002
0.000450013
0.000430017
0.000410009
0.000390014
0.000370006
0.00035001
0.000330003
0.000310005
0.000290002
0.000269998
0.000250002
0.000229991
0.00021
0.000189984
0.000169996
0.000149977
0.000129991
0.000109969
8.99842e-05
6.99601e-05
4.99768e-05
2.99541e-05
9.97705e-06
0.000989625
0.000970669
0.000949544
0.000930667
0.000909461
0.000890736
0.000869303
0.000850959
0.000828945
0.000811388
0.000788477
0.000771734
0.000748377
0.000731493
0.000708902
0.000690803
0.000669576
0.000650261
0.00062993
0.000610061
0.000590019
0.000570024
0.000550026
0.000530019
0.000510023
0.000490016
0.00047002
0.000450013
0.000430017
0.000410009
0.000390014
0.000370006
0.00035001
0.000330003
0.000310005
0.000290002
0.000269998
0.000250002
0.000229991
0.00021
0.000189984
0.000169996
0.000149977
0.000129991
0.00010997
8.99841e-05
6.99602e-05
4.99767e-05
2.99543e-05
9.97683e-06
0.000989644
0.000970681
0.00094955
0.000930674
0.000909461
0.000890739
0.000869301
0.000850961
0.000828935
0.000811405
0.000788453
0.000771759
0.000748353
0.000731512
0.000708891
0.000690808
0.000669575
0.000650261
0.000629931
0.000610061
0.000590019
0.000570024
0.000550026
0.000530019
0.000510023
0.000490016
0.00047002
0.000450013
0.000430017
0.000410009
0.000390014
0.000370006
0.00035001
0.000330003
0.000310005
0.000290002
0.000269998
0.000250001
0.000229991
0.00021
0.000189984
0.000169996
0.000149978
0.000129991
0.00010997
8.99846e-05
6.99603e-05
4.9977e-05
2.99537e-05
9.97691e-06
0.000989549
0.000970718
0.00094951
0.000930716
0.000909416
0.000890786
0.000869252
0.00085101
0.00082889
0.000811444
0.000788426
0.000771774
0.000748348
0.00073151
0.000708896
0.000690803
0.000669579
0.000650259
0.000629933
0.000610061
0.000590019
0.000570024
0.000550026
0.000530019
0.000510023
0.000490016
0.00047002
0.000450013
0.000430017
0.000410009
0.000390014
0.000370006
0.00035001
0.000330003
0.000310005
0.000290002
0.000269999
0.000250001
0.000229991
0.00021
0.000189984
0.000169996
0.000149977
0.000129991
0.000109969
8.99846e-05
6.99598e-05
4.99771e-05
2.99532e-05
9.97797e-06
0.000989575
0.000970714
0.000949511
0.000930715
0.000909415
0.000890789
0.000869249
0.000851016
0.000828882
0.000811454
0.000788415
0.000771786
0.000748336
0.00073152
0.000708888
0.000690809
0.000669575
0.000650261
0.000629931
0.000610061
0.000590019
0.000570024
0.000550026
0.000530019
0.000510023
0.000490016
0.00047002
0.000450013
0.000430017
0.000410009
0.000390014
0.000370006
0.00035001
0.000330003
0.000310005
0.000290002
0.000269999
0.000250001
0.000229991
0.00021
0.000189984
0.000169997
0.000149977
0.000129991
0.000109969
8.99847e-05
6.99599e-05
4.99773e-05
2.99533e-05
9.97773e-06
0.000989582
0.00097071
0.000949515
0.000930711
0.00090942
0.000890783
0.000869254
0.000851011
0.000828885
0.000811453
0.000788414
0.000771791
0.000748328
0.00073153
0.000708878
0.000690817
0.000669569
0.000650264
0.00062993
0.000610062
0.000590019
0.000570024
0.000550026
0.000530019
0.000510023
0.000490016
0.00047002
0.000450013
0.000430017
0.000410009
0.000390014
0.000370006
0.00035001
0.000330003
0.000310005
0.000290002
0.000269998
0.000250001
0.000229991
0.00021
0.000189984
0.000169997
0.000149977
0.000129992
0.000109969
8.99848e-05
6.99599e-05
4.99773e-05
2.99533e-05
9.97741e-06
0.00098957
0.000970714
0.000949512
0.000930712
0.00090942
0.000890783
0.000869256
0.000851008
0.000828889
0.000811449
0.000788415
0.000771792
0.000748323
0.000731537
0.00070887
0.000690825
0.000669564
0.000650267
0.000629928
0.000610062
0.000590018
0.000570024
0.000550026
0.000530019
0.000510023
0.000490016
0.00047002
0.000450013
0.000430017
0.000410009
0.000390014
0.000370006
0.00035001
0.000330003
0.000310005
0.000290002
0.000269998
0.000250001
0.000229991
0.00021
0.000189984
0.000169997
0.000149977
0.000129992
0.000109969
8.99849e-05
6.99599e-05
4.99774e-05
2.99531e-05
9.97714e-06
0.000989569
0.000970717
0.00094951
0.000930715
0.000909418
0.000890784
0.000869256
0.000851006
0.000828892
0.000811445
0.000788418
0.000771791
0.000748321