/*--------------------------------*- C++ -*----------------------------------*\
| =========                 |                                                 |
| \\      /  F ield         | OpenFOAM: The Open Source CFD Toolbox           |
|  \\    /   O peration     | Version:  2412                                  |
|   \\  /    A nd           | Website:  www.openfoam.com                      |
|    \\/     M anipulation  |                                                 |
\*---------------------------------------------------------------------------*/
FoamFile
{
    version     2.0;
    format      ascii;
    arch        "LSB;label=32;scalar=64";
    class       surfaceScalarField;
    location    "3e-05";
    object      phi;
}
// * * * * * * * * * * * * * * * * * * * * * * * * * * * * * * * * * * * * * //

dimensions      [0 3 -1 0 0 0 0];

oriented        oriented;

internalField   nonuniform List<scalar> 
284064
(
2.4131e-20
1.85276e-22
1.84504e-22
2.47955e-20
-3.33692e-22
-3.3366e-22
2.421e-20
2.91261e-22
2.91295e-22
2.48122e-20
-3.02348e-22
-3.02258e-22
2.41722e-20
3.18381e-22
3.18465e-22
2.48518e-20
-3.40474e-22
-3.40346e-22
2.40817e-20
3.83727e-22
3.83772e-22
2.50014e-20
-4.59843e-22
-4.59764e-22
2.38507e-20
5.74585e-22
5.74562e-22
2.52777e-20
-7.12719e-22
-7.12681e-22
2.358e-20
8.48793e-22
8.48788e-22
2.54386e-20
-9.27948e-22
-9.27947e-22
2.36031e-20
9.18525e-22
9.18483e-22
2.52169e-20
-8.05294e-22
-8.05321e-22
2.39643e-20
6.27624e-22
6.27609e-22
2.48159e-20
-4.24355e-22
-4.24384e-22
2.4313e-20
2.52867e-22
2.52851e-22
2.45687e-20
-1.26877e-22
-1.26922e-22
2.4459e-20
5.60553e-23
5.60426e-23
2.44974e-20
-1.86113e-23
-1.8658e-23
2.44884e-20
5.43166e-24
5.42438e-24
2.4488e-20
3.87212e-25
3.59845e-25
2.44909e-20
-8.48083e-25
-8.52305e-25
2.44878e-20
1.54906e-24
1.53464e-24
2.44909e-20
-1.25848e-24
-1.25047e-24
2.44879e-20
1.37886e-24
1.37686e-24
2.4491e-20
-1.34912e-24
-1.33604e-24
2.44878e-20
1.40974e-24
1.4046e-24
2.4491e-20
-1.41897e-24
-1.40824e-24
2.44877e-20
1.53988e-24
1.53082e-24
2.4491e-20
-1.49104e-24
-1.48229e-24
2.44877e-20
1.51264e-24
1.50873e-24
2.44907e-20
-1.37213e-24
-1.36356e-24
2.44883e-20
9.83117e-25
9.86704e-25
2.44896e-20
-6.15471e-25
-6.05677e-25
2.44898e-20
-3.50674e-25
-3.5256e-25
2.44879e-20
9.58835e-25
9.706e-25
2.44917e-20
-2.20407e-24
-2.21241e-24
2.44865e-20
2.56248e-24
2.57359e-24
2.44932e-20
-3.82575e-24
-3.82913e-24
2.44859e-20
3.4626e-24
3.47372e-24
2.44945e-20
-4.91234e-24
-4.91282e-24
2.4486e-20
3.82862e-24
3.85889e-24
2.44958e-20
-5.68732e-24
-5.6859e-24
2.44864e-20
4.09653e-24
4.11669e-24
2.44971e-20
-6.29984e-24
-6.29238e-24
2.44854e-20
4.9245e-24
4.91271e-24
2.44943e-20
-5.24974e-24
-5.27382e-24
2.4469e-20
1.1464e-23
1.14618e-23
1.23689e-23
1.17672e-23
5.40477e-20
-9.47931e-23
5.36713e-22
5.48891e-20
-3.98044e-22
-7.85219e-22
5.42839e-20
2.33011e-22
6.54881e-22
5.49086e-20
-2.48814e-22
-6.85258e-22
5.42483e-20
2.40303e-22
7.29247e-22
5.49236e-20
-2.23782e-22
-7.95481e-22
5.41685e-20
2.20034e-22
9.11451e-22
5.50702e-20
-2.7674e-22
-1.08477e-21
5.39023e-20
3.88979e-22
1.34908e-21
5.54062e-20
-5.16972e-22
-1.69524e-21
5.35421e-20
7.66392e-22
1.94631e-21
5.56481e-20
-1.01531e-21
-2.01078e-21
5.352e-20
1.20032e-21
1.85086e-21
5.54197e-20
-1.18903e-21
-1.50677e-21
5.39337e-20
1.03963e-21
1.08146e-21
5.49453e-20
-7.66215e-22
-6.61425e-22
5.43514e-20
5.03483e-22
3.5139e-22
5.465e-20
-2.68747e-22
-1.51067e-22
5.45248e-20
1.31903e-22
5.63987e-23
5.45674e-20
-4.59495e-23
-1.19207e-23
5.45584e-20
1.79281e-23
1.76953e-24
5.45575e-20
-8.09487e-25
3.37862e-24
5.45611e-20
8.29781e-25
-1.91421e-24
5.45574e-20
2.18786e-24
2.95376e-24
5.45611e-20
-9.29986e-25
-2.16664e-24
5.45576e-20
1.57941e-24
2.54098e-24
5.45612e-20
-1.3796e-24
-2.41197e-24
5.45575e-20
1.54951e-24
2.63919e-24
5.45611e-20
-1.40196e-24
-2.63136e-24
5.45572e-20
1.71176e-24
2.99549e-24
5.4561e-20
-1.32569e-24
-2.92831e-24
5.45571e-20
1.35242e-24
3.16441e-24
5.45604e-20
-1.01373e-24
-2.9811e-24
5.45577e-20
5.54046e-26
2.41996e-24
5.4559e-20
2.13136e-25
-1.85254e-24
5.45594e-20
-2.508e-24
2.15656e-25
5.4557e-20
2.5448e-24
9.96573e-25
5.45616e-20
-5.09597e-24
-3.60715e-24
5.45555e-20
3.91591e-24
4.55043e-24
5.45634e-20
-7.03254e-24
-7.37823e-24
5.45553e-20
3.49359e-24
6.98068e-24
5.45652e-20
-8.55002e-24
-9.9392e-24
5.45562e-20
2.82651e-24
7.77311e-24
5.45674e-20
-9.8417e-24
-1.17249e-23
5.45575e-20
2.12571e-24
8.32457e-24
5.45696e-20
-1.09007e-23
-1.29954e-23
5.45557e-20
3.01262e-24
1.04711e-23
5.4563e-20
-6.85717e-24
-1.0448e-23
5.45188e-20
2.31433e-23
2.57638e-23
4.20852e-23
2.36732e-23
7.55031e-20
-2.4914e-22
2.87889e-22
7.64432e-20
-4.67131e-22
-8.79186e-22
7.58591e-20
1.10014e-22
6.98665e-22
7.64711e-20
-1.11413e-22
-7.56438e-22
7.58213e-20
6.37513e-23
8.17249e-22
7.64796e-20
1.11838e-23
-8.96837e-22
7.57324e-20
-8.58946e-23
1.04581e-21
7.66416e-20
1.05265e-22
-1.29114e-21
7.54323e-20
-6.0949e-24
1.59998e-21
7.70086e-20
-1.59485e-22
-1.92937e-21
7.50481e-20
5.16152e-22
2.21059e-21
7.72477e-20
-9.05679e-22
-2.3014e-21
7.50549e-20
1.24581e-21
2.1518e-21
7.69744e-20
-1.34386e-21
-1.75551e-21
7.55117e-20
1.24652e-21
1.26322e-21
7.64759e-20
-9.51996e-22
-7.70053e-22
7.5933e-20
6.43255e-22
4.11243e-22
7.61923e-20
-3.47725e-22
-1.74582e-22
7.60916e-20
1.74099e-22
6.54416e-23
7.61221e-20
-6.04021e-23
-1.27506e-23
7.61182e-20
2.47222e-23
2.37696e-24
7.61158e-20
-1.44664e-24
4.35625e-24
7.61198e-20
1.89679e-24
-1.78237e-24
7.61161e-20
2.44535e-24
3.38768e-24
7.61199e-20
-5.9426e-25
-2.19932e-24
7.61163e-20
1.54096e-24
2.78518e-24
7.61199e-20
-1.21224e-24
-2.58813e-24
7.61161e-20
1.48529e-24
2.89564e-24
7.61197e-20
-1.18275e-24
-2.8034e-24
7.61158e-20
1.63524e-24
3.33759e-24
7.61195e-20
-9.4978e-25
-3.13069e-24
7.61154e-20
1.07484e-24
3.45973e-24
7.61188e-20
-4.9239e-25
-3.23556e-24
7.61159e-20
-8.05325e-25
2.63448e-24
7.61174e-20
1.15786e-24
-2.16965e-24
7.61175e-20
-4.00335e-24
-1.35056e-25
7.61152e-20
3.68511e-24
1.29701e-24
7.61197e-20
-6.83857e-24
-4.65267e-24
7.61135e-20
4.54491e-24
5.29553e-24
7.61217e-20
-8.59248e-24
-9.20572e-24
7.61135e-20
2.8317e-24
7.69932e-24
7.61238e-20
-9.95629e-24
-1.25165e-23
7.61149e-20
1.03445e-24
8.44276e-24
7.61266e-20
-1.12798e-23
-1.48808e-23
7.61169e-20
-6.70861e-25
8.92654e-24
7.61293e-20
-1.23062e-23
-1.65073e-23
7.61146e-20
1.48514e-24
1.09029e-23
7.61201e-20
-4.74497e-24
-1.22971e-23
7.60654e-20
3.93452e-23
3.19295e-23
6.80007e-23
3.66135e-23
9.20395e-20
-3.38682e-22
1.36919e-22
9.30575e-20
-6.31503e-22
-8.61526e-22
9.24901e-20
5.18914e-23
6.17187e-22
9.30963e-20
-6.2406e-23
-6.62185e-22
9.24509e-20
-3.49481e-24
7.03778e-22
9.31026e-20
1.20931e-22
-7.65047e-22
9.23538e-20
-2.48919e-22
9.04654e-22
9.32753e-20
3.41835e-22
-1.15811e-21
9.20326e-20
-2.71029e-22
1.50344e-21
9.36565e-20
9.67338e-23
-1.87592e-21
9.16404e-20
3.04752e-22
2.22743e-21
9.38874e-20
-7.58202e-22
-2.38683e-21
9.16686e-20
1.18419e-21
2.28497e-21
9.35883e-20
-1.36131e-21
-1.89322e-21
9.21472e-20
1.31365e-21
1.38126e-21
9.30805e-20
-1.02286e-21
-8.54262e-22
9.25672e-20
7.01145e-22
4.6347e-22
9.28052e-20
-3.83026e-22
-1.97067e-22
9.27174e-20
1.94261e-22
7.45727e-23
9.27419e-20
-6.7676e-23
-1.40012e-23
9.27404e-20
2.82336e-23
3.11161e-24
9.27373e-20
-1.87601e-24
4.82379e-24
9.27416e-20
2.55472e-24
-1.65225e-24
9.27379e-20
2.55344e-24
3.55581e-24
9.27417e-20
-3.43576e-25
-2.14037e-24
9.27381e-20
1.48284e-24
2.83016e-24
9.27416e-20
-1.01573e-24
-2.60714e-24
9.27379e-20
1.44017e-24
2.93221e-24
9.27414e-20
-9.40797e-25
-2.7958e-24
9.27374e-20
1.56722e-24
3.41584e-24
9.27411e-20
-5.99651e-25
-3.08619e-24
9.27369e-20
9.3083e-25
3.45703e-24
9.27403e-20
-7.41261e-26
-3.15893e-24
9.27372e-20
-1.24712e-24
2.41939e-24
9.27388e-20
1.80366e-24
-1.9676e-24
9.27386e-20
-4.68438e-24
-7.08362e-25
9.27364e-20
4.2893e-24
1.75236e-24
9.27408e-20
-7.50142e-24
-5.58106e-24
9.27346e-20
4.62556e-24
5.83956e-24
9.27429e-20
-9.05112e-24
-1.03377e-23
9.27347e-20
2.07396e-24
7.8045e-24
9.27452e-20
-1.03249e-23
-1.37009e-23
9.27363e-20
-4.45069e-25
8.0572e-24
9.27484e-20
-1.17348e-23
-1.60962e-23
9.27388e-20
-2.63777e-24
7.97138e-24
9.27515e-20
-1.27182e-23
-1.76571e-23
9.27363e-20
1.47386e-24
9.97418e-24
9.27405e-20
-1.37406e-24
-1.22517e-23
9.26794e-20
5.81111e-23
3.59596e-23
8.92861e-23
4.66217e-23
1.05234e-19
-5.86659e-22
2.33173e-22
1.06313e-19
-7.84604e-22
-9.33106e-22
1.05758e-19
-1.93748e-23
6.17529e-22
1.06363e-19
-1.80078e-23
-6.56428e-22
1.05716e-19
-4.53222e-23
6.80115e-22
1.0637e-19
1.80965e-22
-7.17704e-22
1.05612e-19
-3.2417e-22
8.26528e-22
1.0655e-19
4.5203e-22
-1.0482e-21
1.05279e-19
-4.132e-22
1.40882e-21
1.06935e-19
2.47372e-22
-1.80259e-21
1.04887e-19
1.59123e-22
2.19366e-21
1.07157e-19
-6.35258e-22
-2.38484e-21
1.04931e-19
1.09831e-21
2.31576e-21
1.06843e-19
-1.3178e-21
-1.94624e-21
1.0542e-19
1.30219e-21
1.44148e-21
1.06333e-19
-1.02626e-21
-9.01404e-22
1.05837e-19
7.117e-22
4.93017e-22
1.06064e-19
-3.91456e-22
-2.12218e-22
1.05982e-19
2.00222e-22
8.18511e-23
1.06004e-19
-7.03023e-23
-1.56911e-23
1.06004e-19
2.95546e-23
3.99328e-24
1.06e-19
-2.09915e-24
4.91821e-24
1.06005e-19
2.9221e-24
-1.52596e-24
1.06001e-19
2.58175e-24
3.64235e-24
1.06005e-19
-1.29308e-25
-2.11976e-24
1.06001e-19
1.4434e-24
2.84068e-24
1.06005e-19
-8.01883e-25
-2.61466e-24
1.06001e-19
1.4417e-24
2.93416e-24
1.06005e-19
-6.79005e-25
-2.78348e-24
1.06e-19
1.55647e-24
3.43141e-24
1.06004e-19
-2.46648e-25
-3.0645e-24
1.06e-19
9.05436e-25
3.43437e-24
1.06003e-19
3.02312e-25
-3.11131e-24
1.06e-19
-1.41706e-24
2.29617e-24
1.06002e-19
2.24986e-24
-1.81043e-24
1.06001e-19
-4.84522e-24
-1.04541e-24
1.05999e-19
4.60071e-24
2.00111e-24
1.06003e-19
-7.62484e-24
-5.96542e-24
1.05997e-19
4.55302e-24
5.97399e-24
1.06005e-19
-9.13505e-24
-1.06763e-23
1.05997e-19
1.50655e-24
7.61188e-24
1.06008e-19
-1.05264e-23
-1.39248e-23
1.05999e-19
-1.56687e-24
7.65352e-24
1.06011e-19
-1.2089e-23
-1.6332e-23
1.06002e-19
-4.01418e-24
7.30772e-24
1.06015e-19
-1.30286e-23
-1.78689e-23
1.05999e-19
2.16441e-24
9.6538e-24
1.06003e-19
2.54606e-24
-1.19684e-23
1.05938e-19
7.66227e-23
4.02344e-23
1.0756e-22
5.26781e-23
1.15951e-19
-8.12421e-22
1.64004e-22
1.17074e-19
-9.24e-22
-9.90675e-22
1.1653e-19
-9.4199e-23
6.10879e-22
1.17135e-19
3.44232e-23
-6.64421e-22
1.16485e-19
-8.95044e-23
6.85842e-22
1.17145e-19
2.31088e-22
-7.13695e-22
1.16374e-19
-3.67327e-22
8.06567e-22
1.17329e-19
5.03725e-22
-1.00626e-21
1.16036e-19
-4.8228e-22
1.35793e-21
1.17713e-19
3.32391e-22
-1.75789e-21
1.15648e-19
6.52063e-23
2.1587e-21
1.17925e-19
-5.4276e-22
-2.36237e-21
1.15703e-19
1.01439e-21
2.31091e-21
1.17604e-19
-1.25044e-21
-1.96006e-21
1.16195e-19
1.25267e-21
1.46543e-21
1.17095e-19
-9.95928e-22
-9.22198e-22
1.1661e-19
6.97082e-22
5.07848e-22
1.1683e-19
-3.85456e-22
-2.20431e-22
1.16752e-19
1.98316e-22
8.61341e-23
1.16772e-19
-7.00477e-23
-1.71824e-23
1.16773e-19
2.95853e-23
4.62053e-24
1.16769e-19
-2.17949e-24
4.90232e-24
1.16774e-19
3.10122e-24
-1.44026e-24
1.1677e-19
2.5567e-24
3.69564e-24
1.16774e-19
5.67277e-26
-2.09837e-24
1.1677e-19
1.41404e-24
2.85807e-24
1.16774e-19
-5.97629e-25
-2.59916e-24
1.1677e-19
1.46336e-24
2.94974e-24
1.16773e-19
-4.36421e-25
-2.72991e-24
1.16769e-19
1.57385e-24
3.46497e-24
1.16773e-19
6.4916e-26
-3.00024e-24
1.16769e-19
9.41209e-25
3.4395e-24
1.16772e-19
6.24436e-25
-3.0342e-24
1.16769e-19
-1.43711e-24
2.2556e-24
1.1677e-19
2.54316e-24
-1.67049e-24
1.1677e-19
-4.74876e-24
-1.17022e-24
1.16768e-19
4.72951e-24
2.16973e-24
1.16772e-19
-7.4864e-24
-6.08589e-24
1.16766e-19
4.42569e-24
6.00746e-24
1.16774e-19
-9.05351e-24
-1.07814e-23
1.16766e-19
1.11506e-24
7.43554e-24
1.16776e-19
-1.06401e-23
-1.40177e-23
1.16767e-19
-2.40186e-24
7.34468e-24
1.1678e-19
-1.23356e-23
-1.65131e-23
1.1677e-19
-5.00446e-24
6.89279e-24
1.16783e-19
-1.31753e-23
-1.81062e-23
1.16768e-19
3.25637e-24
9.46082e-24
1.16771e-19
6.6203e-24
-1.16589e-23
1.16704e-19
9.3781e-23
4.38771e-23
1.22569e-22
5.75055e-23
1.24738e-19
-9.75372e-22
7.0443e-23
1.25891e-19
-1.06182e-21
-1.02256e-21
1.25354e-19
-1.5391e-22
5.88922e-22
1.25961e-19
7.60866e-23
-6.55715e-22
1.25307e-19
-1.2248e-22
6.78783e-22
1.25974e-19
2.67813e-22
-7.07497e-22
1.25192e-19
-3.92264e-22
8.00167e-22
1.26161e-19
5.26659e-22
-9.91629e-22
1.24852e-19
-5.09327e-22
1.33151e-21
1.26541e-19
3.74419e-22
-1.72661e-21
1.2447e-19
6.29516e-24
2.1298e-21
1.26747e-19
-4.72891e-22
-2.33887e-21
1.24531e-19
9.35701e-22
2.29848e-21
1.26423e-19
-1.17422e-21
-1.95941e-21
1.25024e-19
1.18653e-21
1.47207e-21
1.25916e-19
-9.49938e-22
-9.30257e-22
1.25436e-19
6.69177e-22
5.15689e-22
1.25653e-19
-3.71543e-22
-2.25479e-22
1.25577e-19
1.91987e-22
8.89207e-23
1.25597e-19
-6.80268e-23
-1.84135e-23
1.25598e-19
2.88731e-23
5.05092e-24
1.25594e-19
-2.16607e-24
4.8494e-24
1.25599e-19
3.16772e-24
-1.39385e-24
1.25595e-19
2.50396e-24
3.71931e-24
1.25599e-19
2.08718e-25
-2.06507e-24
1.25595e-19
1.38966e-24
2.87576e-24
1.25598e-19
-4.08883e-25
-2.57891e-24
1.25595e-19
1.49493e-24
2.96507e-24
1.25598e-19
-2.16501e-25
-2.67649e-24
1.25594e-19
1.59975e-24
3.50316e-24
1.25597e-19
3.40713e-25
-2.9452e-24
1.25593e-19
1.00944e-24
3.45073e-24
1.25596e-19
8.88673e-25
-2.94795e-24
1.25593e-19
-1.35684e-24
2.23091e-24
1.25595e-19
2.71871e-24
-1.54815e-24
1.25594e-19
-4.51574e-24
-1.21449e-24
1.25592e-19
4.7489e-24
2.28462e-24
1.25596e-19
-7.19261e-24
-6.12278e-24
1.2559e-19
4.27915e-24
6.01027e-24
1.25598e-19
-8.83744e-24
-1.08442e-23
1.2559e-19
8.18686e-25
7.34466e-24
1.256e-19
-1.06093e-23
-1.41306e-23
1.25592e-19
-3.00585e-24
7.1123e-24
1.25604e-19
-1.24121e-23
-1.67037e-23
1.25595e-19
-5.6752e-24
6.57647e-24
1.25608e-19
-1.30979e-23
-1.83597e-23
1.25592e-19
4.48186e-24
9.41039e-24
1.25595e-19
1.04362e-23
-1.124e-23
1.25527e-19
1.09001e-22
4.69035e-23
1.34067e-22
6.15394e-23
1.31979e-19
-1.09887e-21
1.52689e-23
1.33151e-19
-1.19492e-21
-1.04624e-21
1.32617e-19
-1.99623e-22
5.7147e-22
1.33229e-19
9.97971e-23
-6.41578e-22
1.32569e-19
-1.37558e-22
6.65776e-22
1.33244e-19
2.85459e-22
-6.9622e-22
1.32452e-19
-3.98296e-22
7.91796e-22
1.33432e-19
5.2918e-22
-9.82232e-22
1.32113e-19
-5.09298e-22
1.31416e-21
1.33807e-19
3.8896e-22
-1.70375e-21
1.31737e-19
-3.04269e-23
2.10652e-21
1.34007e-19
-4.1706e-22
-2.31895e-21
1.318e-19
8.60788e-22
2.28601e-21
1.33684e-19
-1.09478e-21
-1.95476e-21
1.32292e-19
1.11339e-21
1.47259e-21
1.3318e-19
-8.96454e-22
-9.33965e-22
1.32702e-19
6.34116e-22
5.20596e-22
1.32919e-19
-3.53149e-22
-2.29144e-22
1.32843e-19
1.83115e-22
9.0956e-23
1.32863e-19
-6.49721e-23
-1.93795e-23
1.32863e-19
2.77279e-23
5.36304e-24
1.3286e-19
-2.09228e-24
4.79102e-24
1.32864e-19
3.16432e-24
-1.37229e-24
1.32861e-19
2.43605e-24
3.72575e-24
1.32864e-19
3.24416e-25
-2.02695e-24
1.32861e-19
1.37173e-24
2.88687e-24
1.32864e-19
-2.29594e-25
-2.57188e-24
1.3286e-19
1.5322e-24
2.97193e-24
1.32864e-19
-1.5935e-26
-2.6293e-24
1.3286e-19
1.63083e-24
3.53523e-24
1.32863e-19
5.93209e-25
-2.91088e-24
1.32859e-19
1.09573e-24
3.4559e-24
1.32862e-19
1.11003e-24
-2.87543e-24
1.32859e-19
-1.21108e-24
2.21757e-24
1.3286e-19
2.82692e-24
-1.47137e-24
1.3286e-19
-4.20092e-24
-1.23782e-24
1.32857e-19
4.70517e-24
2.36751e-24
1.32861e-19
-6.79914e-24
-6.12363e-24
1.32855e-19
4.13097e-24
5.99775e-24
1.32863e-19
-8.51677e-24
-1.08759e-23
1.32855e-19
5.95116e-25
7.28179e-24
1.32866e-19
-1.04328e-23
-1.42148e-23
1.32857e-19
-3.42476e-24
6.93988e-24
1.32869e-19
-1.23311e-23
-1.68375e-23
1.3286e-19
-6.07079e-24
6.33299e-24
1.32873e-19
-1.28317e-23
-1.85353e-23
1.32858e-19
5.72834e-24
9.39144e-24
1.32861e-19
1.38135e-23
-1.08747e-23
1.32792e-19
1.21634e-22
4.97645e-23
1.42088e-22
6.48668e-23
1.3796e-19
-1.19144e-21
-1.88696e-23
1.39141e-19
-1.31227e-21
-1.07124e-21
1.38608e-19
-2.33763e-22
5.59354e-22
1.39224e-19
1.09706e-22
-6.32332e-22
1.38559e-19
-1.39479e-22
6.57867e-22
1.39242e-19
2.86765e-22
-6.87663e-22
1.38441e-19
-3.87438e-22
7.83746e-22
1.39429e-19
5.15289e-22
-9.73855e-22
1.38106e-19
-4.90952e-22
1.30067e-21
1.39798e-19
3.83864e-22
-1.68367e-21
1.37734e-19
-5.21778e-23
2.0861e-21
1.39996e-19
-3.7046e-22
-2.30136e-21
1.37798e-19
7.88357e-22
2.27487e-21
1.39676e-19
-1.01407e-21
-1.95002e-21
1.38287e-19
1.03716e-21
1.472e-21
1.39174e-19
-8.38699e-22
-9.37099e-22
1.38696e-19
5.95008e-22
5.2445e-22
1.38913e-19
-3.32088e-22
-2.32208e-22
1.38837e-19
1.72733e-22
9.26076e-23
1.38857e-19
-6.13021e-23
-2.0172e-23
1.38858e-19
2.6324e-23
5.6044e-24
1.38854e-19
-1.98027e-24
4.73569e-24
1.38859e-19
3.11641e-24
-1.36404e-24
1.38855e-19
2.35543e-24
3.72721e-24
1.38859e-19
4.05796e-25
-1.99056e-24
1.38855e-19
1.35557e-24
2.8972e-24
1.38858e-19
-5.97656e-26
-2.56798e-24
1.38855e-19
1.56558e-24
2.98015e-24
1.38858e-19
1.60965e-25
-2.58523e-24
1.38854e-19
1.65457e-24
3.56658e-24
1.38857e-19
8.04909e-25
-2.86618e-24
1.38853e-19
1.18183e-24
3.46422e-24
1.38856e-19
1.27524e-24
-2.79444e-24
1.38853e-19
-1.04156e-24
2.22447e-24
1.38854e-19
2.88554e-24
-1.41085e-24
1.38854e-19
-3.83791e-24
-1.25294e-24
1.38852e-19
4.61547e-24
2.43859e-24
1.38856e-19
-6.35151e-24
-6.10097e-24
1.38849e-19
3.98152e-24
5.99035e-24
1.38857e-19
-8.13109e-24
-1.08685e-23
1.38849e-19
4.20541e-25
7.24857e-24
1.3886e-19
-1.01426e-23
-1.42475e-23
1.38851e-19
-3.67885e-24
6.80296e-24
1.38863e-19
-1.21109e-23
-1.69163e-23
1.38854e-19
-6.23477e-24
6.15474e-24
1.38867e-19
-1.24096e-23
-1.86537e-23
1.38851e-19
6.91606e-24
9.39098e-24
1.38855e-19
1.66562e-23
-1.05852e-23
1.38787e-19
1.31136e-22
5.26125e-23
1.46736e-22
6.76269e-23
1.42902e-19
-1.24898e-21
-4.66377e-23
1.44084e-19
-1.4044e-21
-1.09732e-21
1.4355e-19
-2.57585e-22
5.50855e-22
1.4417e-19
1.12473e-22
-6.29807e-22
1.435e-19
-1.34175e-22
6.55729e-22
1.44191e-19
2.77123e-22
-6.83903e-22
1.43382e-19
-3.64723e-22
7.78835e-22
1.44376e-19
4.89212e-22
-9.67008e-22
1.43052e-19
-4.60775e-22
1.28992e-21
1.4474e-19
3.66067e-22
-1.66723e-21
1.42684e-19
-6.32627e-23
2.0676e-21
1.44937e-19
-3.3022e-22
-2.28577e-21
1.42746e-19
7.177e-22
2.26524e-21
1.4462e-19
-9.3265e-22
-1.94651e-21
1.43232e-19
9.59247e-22
1.47213e-21
1.4412e-19
-7.78327e-22
-9.40366e-22
1.43641e-19
5.53492e-22
5.27935e-22
1.43859e-19
-3.09379e-22
-2.34947e-22
1.43783e-19
1.6142e-22
9.40308e-23
1.43803e-19
-5.72565e-23
-2.08492e-23
1.43803e-19
2.47596e-23
5.80266e-24
1.438e-19
-1.84305e-24
4.68724e-24
1.43805e-19
3.03571e-24
-1.3632e-24
1.43801e-19
2.26208e-24
3.7237e-24
1.43805e-19
4.65711e-25
-1.96895e-24
1.43801e-19
1.33354e-24
2.9101e-24
1.43804e-19
9.11469e-26
-2.56321e-24
1.43801e-19
1.58307e-24
2.98903e-24
1.43804e-19
3.14844e-25
-2.54599e-24
1.438e-19
1.65914e-24
3.60257e-24
1.43803e-19
9.71302e-25
-2.82692e-24
1.43799e-19
1.24928e-24
3.47635e-24
1.43802e-19
1.38914e-24
-2.72283e-24
1.43799e-19
-8.70846e-25
2.24007e-24
1.438e-19
2.88987e-24
-1.35029e-24
1.438e-19
-3.45652e-24
-1.26061e-24
1.43797e-19
4.48429e-24
2.50958e-24
1.43801e-19
-5.88189e-24
-6.06247e-24
1.43795e-19
3.82578e-24
5.98946e-24
1.43803e-19
-7.71014e-24
-1.08385e-23
1.43795e-19
2.8216e-25
7.23528e-24
1.43805e-19
-9.76398e-24
-1.42413e-23
1.43797e-19
-3.77861e-24
6.6875e-24
1.43809e-19
-1.17515e-23
-1.6968e-23
1.43799e-19
-6.20347e-24
6.03372e-24
1.43812e-19
-1.18415e-23
-1.87395e-23
1.43797e-19
7.95891e-24
9.43103e-24
1.43801e-19
1.88927e-23
-1.0343e-23
1.43733e-19
1.3719e-22
5.54372e-23
1.48171e-22
6.99699e-23
1.46983e-19
-1.26931e-21
-6.78847e-23
1.48159e-19
-1.46513e-21
-1.12251e-21
1.47621e-19
-2.72491e-22
5.45582e-22
1.48246e-19
1.11733e-22
-6.30625e-22
1.47572e-19
-1.24933e-22
6.56314e-22
1.48268e-19
2.60997e-22
-6.83646e-22
1.47455e-19
-3.35016e-22
7.76877e-22
1.48451e-19
4.54821e-22
-9.61747e-22
1.47129e-19
-4.23999e-22
1.28175e-21
1.48812e-19
3.41659e-22
-1.65493e-21
1.46764e-19
-6.72563e-23
2.05165e-21
1.49008e-19
-2.94266e-22
-2.27236e-21
1.46824e-19
6.48495e-22
2.25708e-21
1.48695e-19
-8.50766e-22
-1.94427e-21
1.47307e-19
8.80129e-22
1.47334e-21
1.48197e-19
-7.16323e-22
-9.43783e-22
1.47716e-19
5.10501e-22
5.31229e-22
1.47935e-19
-2.85633e-22
-2.37435e-22
1.47858e-19
1.4952e-22
9.52928e-23
1.47879e-19
-5.29715e-23
-2.14408e-23
1.47879e-19
2.3089e-23
5.97401e-24
1.47876e-19
-1.69052e-24
4.64532e-24
1.47881e-19
2.92987e-24
-1.36553e-24
1.47877e-19
2.15662e-24
3.71771e-24
1.47881e-19
5.11798e-25
-1.95737e-24
1.47877e-19
1.29954e-24
2.92364e-24
1.4788e-19
2.22322e-25
-2.56047e-24
1.47877e-19
1.57799e-24
2.99856e-24
1.4788e-19
4.34706e-25
-2.50391e-24
1.47876e-19
1.63329e-24
3.63867e-24
1.47879e-19
1.09276e-24
-2.79476e-24
1.47875e-19
1.28605e-24
3.49045e-24
1.47878e-19
1.46567e-24
-2.67367e-24
1.47875e-19
-7.0981e-25
2.2525e-24
1.47876e-19
2.8433e-24
-1.29641e-24
1.47876e-19
-3.0813e-24
-1.25919e-24
1.47873e-19
4.30932e-24
2.58104e-24
1.47877e-19
-5.41423e-24
-6.01803e-24
1.47871e-19
3.66083e-24
5.99577e-24
1.47879e-19
-7.26641e-24
-1.08022e-23
1.47871e-19
1.90699e-25
7.21655e-24
1.47881e-19
-9.31326e-24
-1.42122e-23
1.47872e-19
-3.72727e-24
6.58687e-24
1.47884e-19
-1.1249e-23
-1.70024e-23
1.47875e-19
-6.00592e-24
5.95488e-24
1.47888e-19
-1.11347e-23
-1.88029e-23
1.47873e-19
8.80127e-24
9.49594e-24
1.47877e-19
2.04706e-23
-1.01293e-23
1.4781e-19
1.39737e-22
5.80993e-23
1.4657e-22
7.19727e-23
1.50347e-19
-1.25436e-21
-8.01454e-23
1.51511e-19
-1.49277e-21
-1.14362e-21
1.50967e-19
-2.79263e-22
5.42503e-22
1.51596e-19
1.0858e-22
-6.32031e-22
1.50918e-19
-1.1325e-22
6.57645e-22
1.5162e-19
2.4106e-22
-6.84934e-22
1.50803e-19
-3.01692e-22
7.76569e-22
1.51801e-19
4.15261e-22
-9.57813e-22
1.50482e-19
-3.83905e-22
1.2751e-21
1.52158e-19
3.13699e-22
-1.64477e-21
1.5012e-19
-6.6977e-23
2.03842e-21
1.52355e-19
-2.60889e-22
-2.26136e-21
1.50176e-19
5.80657e-22
2.25019e-21
1.52046e-19
-7.68707e-22
-1.94294e-21
1.50657e-19
7.99977e-22
1.47542e-21
1.51549e-19
-6.53343e-22
-9.47219e-22
1.51066e-19
4.66613e-22
5.34327e-22
1.51287e-19
-2.61226e-22
-2.397e-22
1.51209e-19
1.37234e-22
9.64216e-23
1.5123e-19
-4.85284e-23
-2.19666e-23
1.5123e-19
2.13435e-23
6.12623e-24
1.51227e-19
-1.52844e-24
4.61005e-24
1.51232e-19
2.80151e-24
-1.37089e-24
1.51228e-19
2.03646e-24
3.70971e-24
1.51232e-19
5.47391e-25
-1.95239e-24
1.51228e-19
1.24934e-24
2.93571e-24
1.51231e-19
3.2725e-25
-2.55934e-24
1.51228e-19
1.54307e-24
3.00604e-24
1.51231e-19
5.16696e-25
-2.4614e-24
1.51227e-19
1.57307e-24
3.67408e-24
1.5123e-19
1.16682e-24
-2.76855e-24
1.51226e-19
1.28365e-24
3.50263e-24
1.51229e-19
1.49529e-24
-2.62001e-24
1.51226e-19
-5.71257e-25
2.26954e-24
1.51227e-19
2.74673e-24
-1.25054e-24
1.51227e-19
-2.73142e-24
-1.25256e-24
1.51225e-19
4.09188e-24
2.65113e-24
1.51228e-19
-4.95976e-24
-5.97403e-24
1.51222e-19
3.48123e-24
6.00706e-24
1.5123e-19
-6.80197e-24
-1.07752e-23
1.51222e-19
1.46483e-25
7.2024e-24
1.51232e-19
-8.79439e-24
-1.41752e-23
1.51223e-19
-3.54406e-24
6.51173e-24
1.51235e-19
-1.06031e-23
-1.70245e-23
1.51226e-19
-5.65726e-24
5.90327e-24
1.51239e-19
-1.02974e-23
-1.88415e-23
1.51224e-19
9.40354e-24
9.58201e-24
1.51228e-19
2.13645e-23
-9.93291e-24
1.51163e-19
1.38954e-22
6.04914e-23
1.42167e-22
7.36979e-23
1.5311e-19
-1.20801e-21
-8.33369e-23
1.54258e-19
-1.48777e-21
-1.15995e-21
1.53709e-19
-2.785e-22
5.40996e-22
1.5434e-19
1.03344e-22
-6.3314e-22
1.5366e-19
-9.99917e-23
6.59022e-22
1.54365e-19
2.18779e-22
-6.8657e-22
1.53547e-19
-2.66912e-22
7.76955e-22
1.54545e-19
3.72941e-22
-9.54958e-22
1.5323e-19
-3.42248e-22
1.26918e-21
1.54899e-19
2.83513e-22
-1.63572e-21
1.52869e-19
-6.44074e-23
2.02763e-21
1.55097e-19
-2.2894e-22
-2.25245e-21
1.52923e-19
5.14134e-22
2.24445e-21
1.54791e-19
-6.86795e-22
-1.94215e-21
1.53401e-19
7.18953e-22
1.47801e-21
1.54296e-19
-5.89728e-22
-9.50647e-22
1.5381e-19
4.22165e-22
5.37238e-22
1.54033e-19
-2.36393e-22
-2.41744e-22
1.53954e-19
1.24689e-22
9.74354e-23
1.53975e-19
-4.39711e-23
-2.24373e-23
1.53976e-19
1.95429e-23
6.26141e-24
1.53972e-19
-1.36121e-24
4.57907e-24
1.53977e-19
2.65337e-24
-1.37681e-24
1.53973e-19
1.9007e-24
3.70149e-24
1.53977e-19
5.7036e-25
-1.94766e-24
1.53974e-19
1.17955e-24
2.94638e-24
1.53977e-19
4.04245e-25
-2.55811e-24
1.53973e-19
1.47549e-24
3.01303e-24
1.53977e-19
5.60427e-25
-2.42539e-24
1.53972e-19
1.47309e-24
3.7064e-24
1.53976e-19
1.19195e-24
-2.74524e-24
1.53972e-19
1.23761e-24
3.51358e-24
1.53975e-19
1.47163e-24
-2.56711e-24
1.53972e-19
-4.7608e-25
2.2983e-24
1.53973e-19
2.60336e-24
-1.21218e-24
1.53972e-19
-2.42063e-24
-1.24034e-24
1.5397e-19
3.82964e-24
2.71897e-24
1.53974e-19
-4.52634e-24
-5.93547e-24
1.53968e-19
3.28117e-24
6.02664e-24
1.53976e-19
-6.3144e-24
-1.07586e-23
1.53967e-19
1.41626e-25
7.19846e-24
1.53978e-19
-8.20547e-24
-1.41422e-23
1.53969e-19
-3.25563e-24
6.46968e-24
1.5398e-19
-9.81837e-24
-1.70335e-23
1.53971e-19
-5.17321e-24
5.87172e-24
1.53984e-19
-9.34303e-24
-1.886e-23
1.53969e-19
9.73754e-24
9.68834e-24
1.53974e-19
2.15728e-23
-9.75086e-24
1.5391e-19
1.35116e-22
6.25685e-23
1.35207e-22
7.51664e-23
1.55371e-19
-1.13436e-21
-7.90881e-23
1.56499e-19
-1.45048e-21
-1.17291e-21
1.55944e-19
-2.70936e-22
5.40796e-22
1.56578e-19
9.59049e-23
-6.33396e-22
1.55895e-19
-8.5806e-23
6.60263e-22
1.56603e-19
1.9505e-22
-6.8806e-22
1.55785e-19
-2.31945e-22
7.77471e-22
1.56781e-19
3.29468e-22
-9.52794e-22
1.55471e-19
-3.00316e-22
1.2641e-21
1.57134e-19
2.52078e-22
-1.62793e-21
1.55112e-19
-6.08465e-23
2.01892e-21
1.57333e-19
-1.97869e-22
-2.24511e-21
1.55163e-19
4.48881e-22
2.23969e-21
1.57031e-19
-6.05296e-22
-1.94171e-21
1.55638e-19
6.37197e-22
1.4808e-21
1.56536e-19
-5.25518e-22
-9.54144e-22
1.56048e-19
3.77337e-22
5.39964e-22
1.56272e-19
-2.11305e-22
-2.43562e-22
1.56193e-19
1.11967e-22
9.83346e-23
1.56214e-19
-3.93283e-23
-2.28602e-23
1.56215e-19
1.76995e-23
6.38239e-24
1.56211e-19
-1.1909e-24
4.55213e-24
1.56216e-19
2.48511e-24
-1.384e-24
1.56212e-19
1.74642e-24
3.6923e-24
1.56216e-19
5.76705e-25
-1.94195e-24
1.56213e-19
1.08743e-24
2.95493e-24
1.56216e-19
4.51361e-25
-2.56149e-24
1.56212e-19
1.37178e-24
3.01665e-24
1.56216e-19
5.6753e-25
-2.39248e-24
1.56212e-19
1.33287e-24
3.73737e-24
1.56215e-19
1.16708e-24
-2.72639e-24
1.56211e-19
1.14459e-24
3.52153e-24
1.56214e-19
1.39587e-24
-2.51832e-24
1.56211e-19
-4.31192e-25
2.33046e-24
1.56212e-19
2.41243e-24
-1.17942e-24
1.56212e-19
-2.15692e-24
-1.22815e-24
1.56209e-19
3.518e-24
2.79035e-24
1.56213e-19
-4.11541e-24
-5.90258e-24
1.56207e-19
3.05391e-24
6.05085e-24
1.56215e-19
-5.80221e-24
-1.0755e-23
1.56207e-19
1.71577e-25
7.201e-24
1.56217e-19
-7.54027e-24
-1.41193e-23
1.56208e-19
-2.87652e-24
6.44297e-24
1.56219e-19
-8.90028e-24
-1.70358e-23
1.5621e-19
-4.56909e-24
5.86007e-24
1.56222e-19
-8.2809e-24
-1.88606e-23
1.56208e-19
9.78744e-24
9.81034e-24
1.56214e-19
2.11078e-23
-9.57264e-24
1.5615e-19
1.28529e-22
6.43815e-23
1.25973e-22
7.6414e-23
1.5721e-19
-1.03744e-21
-6.92419e-23
1.58317e-19
-1.38161e-21
-1.1835e-21
1.57755e-19
-2.57533e-22
5.41757e-22
1.58391e-19
8.60102e-23
-6.32651e-22
1.57707e-19
-7.12879e-23
6.61392e-22
1.58417e-19
1.70534e-22
-6.89337e-22
1.57599e-19
-1.97504e-22
7.77852e-22
1.58594e-19
2.857e-22
-9.50959e-22
1.57288e-19
-2.58962e-22
1.25984e-21
1.58945e-19
2.20276e-22
-1.6216e-21
1.5693e-19
-5.71764e-23
2.01203e-21
1.59146e-19
-1.67532e-22
-2.23891e-21
1.56978e-19
3.84919e-22
2.2357e-21
1.58846e-19
-5.24414e-22
-1.94141e-21
1.57452e-19
5.55003e-22
1.48341e-21
1.58352e-19
-4.60574e-22
-9.57712e-22
1.57862e-19
3.32243e-22
5.42481e-22
1.58087e-19
-1.86054e-22
-2.45179e-22
1.58007e-19
9.91242e-23
9.91288e-23
1.58029e-19
-3.46205e-23
-2.32326e-23
1.58029e-19
1.58184e-23
6.49292e-24
1.58026e-19
-1.02119e-24
4.52938e-24
1.58031e-19
2.29898e-24
-1.39145e-24
1.58027e-19
1.57323e-24
3.68356e-24
1.58031e-19
5.64789e-25
-1.93607e-24
1.58027e-19
9.71569e-25
2.96185e-24
1.58031e-19
4.6865e-25
-2.56433e-24
1.58027e-19
1.23309e-24
3.01866e-24
1.5803e-19
5.35892e-25
-2.36205e-24
1.58026e-19
1.15032e-24
3.76491e-24
1.5803e-19
1.09391e-24
-2.71041e-24
1.58026e-19
1.00519e-24
3.52731e-24
1.58029e-19
1.26775e-24
-2.47393e-24
1.58026e-19
-4.37981e-25
2.35896e-24
1.58027e-19
2.17396e-24
-1.14891e-24
1.58027e-19
-1.93831e-24
-1.22085e-24
1.58024e-19
3.14671e-24
2.86754e-24
1.58028e-19
-3.73074e-24
-5.87481e-24
1.58022e-19
2.79182e-24
6.08409e-24
1.5803e-19
-5.26489e-24
-1.07589e-23
1.58021e-19
2.29303e-25
7.20982e-24
1.58031e-19
-6.7999e-24
-1.41036e-23
1.58022e-19
-2.41503e-24
6.42547e-24
1.58034e-19
-7.85849e-24
-1.70306e-23
1.58024e-19
-3.86196e-24
5.86277e-24
1.58037e-19
-7.11946e-24
-1.88533e-23
1.58023e-19
9.5477e-24
9.94416e-24
1.58029e-19
2.00056e-23
-9.40698e-24
1.57966e-19
1.19433e-22
6.60139e-23
1.14741e-22
7.7447e-23
1.58694e-19
-9.21156e-22
-5.5557e-23
1.5978e-19
-1.28236e-21
-1.19242e-21
1.59211e-19
-2.39082e-22
5.43436e-22
1.59848e-19
7.4701e-23
-6.32243e-22
1.59163e-19
-5.68805e-23
6.62391e-22
1.59874e-19
1.45761e-22
-6.9043e-22
1.59057e-19
-1.63948e-22
7.7806e-22
1.6005e-19
2.42147e-22
-9.49389e-22
1.58749e-19
-2.18626e-22
1.25629e-21
1.60401e-19
1.88923e-22
-1.61684e-21
1.58391e-19
-5.39357e-23
2.00666e-21
1.60602e-19
-1.37928e-22
-2.23364e-21
1.58437e-19
3.22253e-22
2.23231e-21
1.60306e-19
-4.44326e-22
-1.94113e-21
1.58909e-19
4.72801e-22
1.48551e-21
1.59812e-19
-3.94827e-22
-9.6117e-22
1.5932e-19
2.86828e-22
5.44892e-22
1.59546e-19
-1.6063e-22
-2.46678e-22
1.59466e-19
8.61699e-23
9.9846e-23
1.59488e-19
-2.98653e-23
-2.35573e-23
1.59488e-19
1.39005e-23
6.59563e-24
1.59485e-19
-8.54197e-25
4.51075e-24
1.59489e-19
2.09501e-24
-1.40004e-24
1.59486e-19
1.37952e-24
3.67379e-24
1.59489e-19
5.33638e-25
-1.93134e-24
1.59486e-19
8.31411e-25
2.96594e-24
1.59489e-19
4.55544e-25
-2.57083e-24
1.59486e-19
1.05892e-24
3.01711e-24
1.59489e-19
4.66602e-25
-2.33171e-24
1.59485e-19
9.29284e-25
3.78966e-24
1.59489e-19
9.74808e-25
-2.69888e-24
1.59484e-19
8.20796e-25
3.52935e-24
1.59488e-19
1.09409e-24
-2.43615e-24
1.59485e-19
-4.86977e-25
2.37833e-24
1.59486e-19
1.88913e-24
-1.12339e-24
1.59486e-19
-1.76002e-24
-1.22179e-24
1.59483e-19
2.70533e-24
2.95489e-24
1.59487e-19
-3.37162e-24
-5.85092e-24
1.59481e-19
2.48554e-24
6.12378e-24
1.59489e-19
-4.7073e-24
-1.07681e-23
1.5948e-19
3.09264e-25
7.22296e-24
1.5949e-19
-5.99259e-24
-1.40879e-23
1.59481e-19
-1.87527e-24
6.40759e-24
1.59493e-19
-6.70525e-24
-1.70207e-23
1.59483e-19
-3.06574e-24
5.87769e-24
1.59495e-19
-5.8688e-24
-1.88335e-23
1.59481e-19
9.02023e-24
1.00879e-23
1.59488e-19
1.83297e-23
-9.26518e-24
1.59426e-19
1.07981e-22
6.76085e-23