/*--------------------------------*- C++ -*----------------------------------*\
| =========                 |                                                 |
| \\      /  F ield         | OpenFOAM: The Open Source CFD Toolbox           |
|  \\    /   O peration     | Version:  2412                                  |
|   \\  /    A nd           | Website:  www.openfoam.com                      |
|    \\/     M anipulation  |                                                 |
\*---------------------------------------------------------------------------*/
FoamFile
{
    version     2.0;
    format      ascii;
    arch        "LSB;label=32;scalar=64";
    class       volVectorField;
    location    "3e-05";
    object      U;
}
// * * * * * * * * * * * * * * * * * * * * * * * * * * * * * * * * * * * * * //

dimensions      [0 1 -1 0 0 0 0];

internalField   nonuniform List<vector> 
96800
(
(3.96044e-07 4.4381e-10 4.43231e-10)
(4.00382e-07 -4.24135e-10 -4.24139e-10)
(3.99582e-07 3.88966e-10 3.89022e-10)
(4.00796e-07 -4.0398e-10 -4.03853e-10)
(3.98923e-07 4.22486e-10 4.22584e-10)
(4.01413e-07 -4.63463e-10 -4.63258e-10)
(3.97716e-07 5.29902e-10 5.29973e-10)
(4.02688e-07 -6.41144e-10 -6.40995e-10)
(3.96715e-07 8.26917e-10 8.26899e-10)
(4.02413e-07 -9.00488e-10 -9.00422e-10)
(3.98696e-07 1.00394e-09 1.00394e-09)
(3.98475e-07 -1.0556e-09 -1.05559e-09)
(4.03559e-07 1.03157e-09 1.03154e-09)
(3.94251e-07 -9.02539e-10 -9.02553e-10)
(4.05757e-07 7.14044e-10 7.14029e-10)
(3.94536e-07 -4.98341e-10 -4.98368e-10)
(4.03575e-07 3.10598e-10 3.10583e-10)
(3.9746e-07 -1.64847e-10 -1.6489e-10)
(4.00961e-07 7.74671e-11 7.74593e-11)
(3.99275e-07 -2.78894e-11 -2.7932e-11)
(3.99958e-07 9.18707e-12 9.18105e-12)
(3.99735e-07 -4.91638e-13 -5.25301e-13)
(3.99793e-07 -7.45505e-13 -7.45946e-13)
(3.99785e-07 1.79543e-12 1.77744e-12)
(3.99785e-07 -1.47526e-12 -1.46908e-12)
(3.99786e-07 1.66522e-12 1.65613e-12)
(3.99788e-07 -1.60576e-12 -1.59197e-12)
(3.99785e-07 1.68167e-12 1.67097e-12)
(3.99788e-07 -1.71295e-12 -1.70323e-12)
(3.99784e-07 1.82259e-12 1.80883e-12)
(3.99787e-07 -1.83313e-12 -1.82561e-12)
(3.99785e-07 1.77722e-12 1.77133e-12)
(3.99781e-07 -1.69833e-12 -1.68857e-12)
(3.99793e-07 1.26893e-12 1.27049e-12)
(3.99769e-07 -8.46764e-13 -8.32557e-13)
(3.99806e-07 -3.14065e-13 -3.17902e-13)
(3.99758e-07 1.00569e-12 1.01944e-12)
(3.99813e-07 -2.26764e-12 -2.2813e-12)
(3.9976e-07 2.79691e-12 2.80715e-12)
(3.99812e-07 -4.12333e-12 -4.13356e-12)
(3.99773e-07 4.08575e-12 4.09585e-12)
(3.99813e-07 -5.4794e-12 -5.49043e-12)
(3.99787e-07 4.9368e-12 4.9654e-12)
(3.99822e-07 -6.46836e-12 -6.47203e-12)
(3.99803e-07 5.56965e-12 5.56612e-12)
(3.99835e-07 -7.30182e-12 -7.29651e-12)
(3.99813e-07 6.36289e-12 6.31789e-12)
(3.99806e-07 -7.24912e-12 -7.28227e-12)
(3.99735e-07 8.09058e-12 8.06634e-12)
(3.99216e-07 8.09628e-12 7.64569e-12)
(8.82109e-07 3.18023e-10 2.6853e-09)
(8.91728e-07 -8.88439e-10 -1.4902e-09)
(8.90058e-07 7.06146e-10 1.57639e-09)
(8.92941e-07 -7.43125e-10 -1.69417e-09)
(8.88757e-07 7.63683e-10 1.82071e-09)
(8.94094e-07 -7.90675e-10 -1.9525e-09)
(8.86555e-07 8.56273e-10 2.02467e-09)
(8.96189e-07 -1.01348e-09 -2.06999e-09)
(8.8519e-07 1.21453e-09 2.0444e-09)
(8.94866e-07 -1.45153e-09 -2.01041e-09)
(8.89753e-07 1.83429e-09 1.88615e-09)
(8.86793e-07 -2.14358e-09 -1.76796e-09)
(8.99176e-07 2.27078e-09 1.60817e-09)
(8.79016e-07 -2.09619e-09 -1.38199e-09)
(9.02808e-07 1.72741e-09 1.11898e-09)
(8.80209e-07 -1.22204e-09 -8.12309e-10)
(8.98105e-07 7.67991e-10 5.33188e-10)
(8.86153e-07 -3.98434e-10 -2.93892e-10)
(8.92932e-07 1.87436e-10 1.46335e-10)
(8.89695e-07 -6.43195e-11 -5.42372e-11)
(8.90999e-07 2.27515e-11 1.99567e-11)
(8.90577e-07 -1.68708e-13 -1.63315e-12)
(8.90687e-07 -3.72986e-13 -4.72591e-13)
(8.90672e-07 3.97293e-12 3.32447e-12)
(8.90672e-07 -2.46731e-12 -2.35054e-12)
(8.90674e-07 3.21365e-12 3.11662e-12)
(8.90676e-07 -3.01735e-12 -2.84644e-12)
(8.9067e-07 3.23142e-12 3.07209e-12)
(8.90678e-07 -3.14318e-12 -3.30368e-12)
(8.90666e-07 3.56394e-12 3.38959e-12)
(8.90674e-07 -3.20784e-12 -3.74614e-12)
(8.90668e-07 3.22356e-12 3.47951e-12)
(8.9066e-07 -2.81253e-12 -3.69935e-12)
(8.90681e-07 1.44455e-12 2.75926e-12)
(8.90635e-07 -8.65556e-13 -2.54698e-12)
(8.90706e-07 -2.49151e-12 9.39314e-13)
(8.90612e-07 3.33555e-12 -4.44073e-13)
(8.90721e-07 -7.26464e-12 -1.69605e-12)
(8.90612e-07 6.66145e-12 2.47292e-12)
(8.9072e-07 -1.10835e-11 -4.92276e-12)
(8.90633e-07 7.64517e-12 5.995e-12)
(8.90723e-07 -1.39401e-11 -8.19545e-12)
(8.90664e-07 7.66046e-12 9.68355e-12)
(8.90743e-07 -1.62007e-11 -1.12896e-11)
(8.90698e-07 8.07127e-12 1.28404e-11)
(8.90771e-07 -1.80342e-11 -1.38273e-11)
(8.90719e-07 1.01104e-11 1.66104e-11)
(8.90707e-07 -1.33283e-11 -1.51433e-11)
(8.90547e-07 3.50943e-11 2.49951e-11)
(8.89523e-07 5.28615e-11 -4.65762e-13)
(1.23038e-06 -5.53593e-10 2.33311e-09)
(1.24393e-06 -8.05443e-10 -1.60727e-09)
(1.2416e-06 3.13719e-10 1.75511e-09)
(1.24582e-06 -3.35321e-10 -1.9339e-09)
(1.2399e-06 2.91688e-10 2.14074e-09)
(1.24728e-06 -2.05148e-10 -2.32772e-09)
(1.23719e-06 1.35911e-10 2.41079e-09)
(1.2496e-06 -1.9272e-10 -2.43533e-09)
(1.23608e-06 3.98796e-10 2.33988e-09)
(1.24699e-06 -7.48342e-10 -2.18626e-09)
(1.24284e-06 1.40117e-09 1.92104e-09)
(1.23603e-06 -2.07198e-09 -1.73232e-09)
(1.25494e-06 2.61356e-09 1.61514e-09)
(1.22662e-06 -2.68872e-09 -1.44052e-09)
(1.2587e-06 2.41299e-09 1.21426e-09)
(1.22907e-06 -1.80495e-09 -9.13351e-10)
(1.25203e-06 1.19925e-09 6.25135e-10)
(1.23698e-06 -6.41673e-10 -3.59288e-10)
(1.24538e-06 3.17346e-10 1.84198e-10)
(1.24144e-06 -1.09937e-10 -6.98366e-11)
(1.243e-06 4.39191e-11 2.66234e-11)
(1.2425e-06 -2.10076e-12 -2.54419e-12)
(1.24263e-06 2.75218e-12 1.01296e-13)
(1.24262e-06 4.87744e-12 3.67431e-12)
(1.24261e-06 -1.65063e-12 -2.2293e-12)
(1.24262e-06 3.29175e-12 3.32665e-12)
(1.24262e-06 -2.75983e-12 -2.84731e-12)
(1.24261e-06 3.2011e-12 3.2685e-12)
(1.24262e-06 -2.74667e-12 -3.29283e-12)
(1.24261e-06 3.53442e-12 3.59725e-12)
(1.24262e-06 -2.40964e-12 -3.75273e-12)
(1.2426e-06 2.57469e-12 3.58475e-12)
(1.2426e-06 -1.57842e-12 -3.73547e-12)
(1.24262e-06 -7.85845e-13 2.85772e-12)
(1.24256e-06 1.42837e-12 -2.56002e-12)
(1.24265e-06 -6.84684e-12 7.18383e-13)
(1.24253e-06 6.53978e-12 -3.394e-13)
(1.24267e-06 -1.26322e-11 -1.87303e-12)
(1.24252e-06 9.06307e-12 2.47941e-12)
(1.24267e-06 -1.66403e-11 -5.45736e-12)
(1.24255e-06 6.9122e-12 6.01188e-12)
(1.24268e-06 -1.97471e-11 -9.61621e-12)
(1.24259e-06 4.3168e-12 1.03802e-11)
(1.2427e-06 -2.25015e-11 -1.36777e-11)
(1.24264e-06 1.50754e-12 1.41164e-11)
(1.24274e-06 -2.47132e-11 -1.69296e-11)
(1.24267e-06 4.00856e-12 1.74204e-11)
(1.24265e-06 -1.3082e-11 -1.78047e-11)
(1.24243e-06 6.21338e-11 2.69639e-11)
(1.24112e-06 1.13228e-10 5.21708e-12)
(1.4989e-06 -5.74727e-10 2.07803e-09)
(1.51536e-06 -1.07462e-09 -1.48839e-09)
(1.5126e-06 1.28478e-10 1.64279e-09)
(1.51783e-06 -1.22166e-10 -1.80824e-09)
(1.5107e-06 -9.86099e-12 2.03063e-09)
(1.51943e-06 2.18348e-10 -2.2175e-09)
(1.50781e-06 -4.38046e-10 2.34011e-09)
(1.52161e-06 5.54189e-10 -2.38074e-09)
(1.5072e-06 -3.32842e-10 2.32178e-09)
(1.51781e-06 -2.63332e-11 -2.20332e-09)
(1.5156e-06 8.29179e-10 1.90315e-09)
(1.50502e-06 -1.72214e-09 -1.69969e-09)
(1.52916e-06 2.53279e-09 1.63148e-09)
(1.49497e-06 -2.82741e-09 -1.46288e-09)
(1.5326e-06 2.67748e-09 1.24645e-09)
(1.4985e-06 -2.06306e-09 -9.49401e-10)
(1.52457e-06 1.40328e-09 6.52547e-10)
(1.50767e-06 -7.61771e-10 -3.76951e-10)
(1.51702e-06 3.83592e-10 1.94021e-10)
(1.51267e-06 -1.32685e-10 -7.33715e-11)
(1.51438e-06 5.49301e-11 2.8408e-11)
(1.51384e-06 -3.38451e-12 -2.69579e-12)
(1.51398e-06 4.64454e-12 3.08653e-13)
(1.51396e-06 5.16266e-12 3.71629e-12)
(1.51396e-06 -9.50444e-13 -2.12945e-12)
(1.51396e-06 3.09064e-12 3.36803e-12)
(1.51397e-06 -2.30306e-12 -2.82006e-12)
(1.51396e-06 2.97187e-12 3.28773e-12)
(1.51397e-06 -2.19786e-12 -3.21616e-12)
(1.51395e-06 3.25819e-12 3.64862e-12)
(1.51396e-06 -1.60832e-12 -3.64799e-12)
(1.51395e-06 1.99995e-12 3.52381e-12)
(1.51394e-06 -5.88116e-13 -3.61812e-12)
(1.51396e-06 -2.23268e-12 2.66592e-12)
(1.5139e-06 3.12567e-12 -2.23638e-12)
(1.514e-06 -9.23065e-12 4.33009e-13)
(1.51386e-06 8.34757e-12 -7.8432e-14)
(1.51402e-06 -1.5097e-11 -2.28023e-12)
(1.51385e-06 9.59561e-12 2.7384e-12)
(1.51403e-06 -1.8487e-11 -6.02268e-12)
(1.51387e-06 5.04051e-12 6.17965e-12)
(1.51403e-06 -2.11103e-11 -1.03753e-11)
(1.51392e-06 5.29062e-13 1.0322e-11)
(1.51406e-06 -2.38523e-11 -1.45097e-11)
(1.51397e-06 -3.77484e-12 1.36283e-11)
(1.51411e-06 -2.58964e-11 -1.7649e-11)
(1.51401e-06 2.35638e-12 1.65858e-11)
(1.514e-06 -6.71557e-12 -1.90337e-11)
(1.51373e-06 9.86901e-11 2.70948e-11)
(1.51226e-06 1.62456e-10 9.69758e-12)
(1.71326e-06 -8.69636e-10 2.27037e-09)
(1.73184e-06 -1.46392e-09 -1.51711e-09)
(1.72885e-06 5.21498e-11 1.63866e-09)
(1.73481e-06 -9.31551e-11 -1.77389e-09)
(1.72685e-06 -5.05389e-11 1.97937e-09)
(1.73641e-06 3.22639e-10 -2.14825e-09)
(1.72401e-06 -6.20666e-10 2.27817e-09)
(1.73828e-06 8.66822e-10 -2.31945e-09)
(1.72398e-06 -7.5725e-10 2.26438e-09)
(1.73347e-06 3.99045e-10 -2.18308e-09)
(1.73354e-06 4.3827e-10 1.88329e-09)
(1.71955e-06 -1.4093e-09 -1.66937e-09)
(1.74785e-06 2.3403e-09 1.63086e-09)
(1.70939e-06 -2.76193e-09 -1.4703e-09)
(1.75082e-06 2.70332e-09 1.26584e-09)
(1.71379e-06 -2.11899e-09 -9.70704e-10)
(1.74183e-06 1.46135e-09 6.67749e-10)
(1.72378e-06 -8.00991e-10 -3.85656e-10)
(1.73371e-06 4.07944e-10 1.98772e-10)
(1.72911e-06 -1.42502e-10 -7.53561e-11)
(1.73092e-06 5.97636e-11 2.92754e-11)
(1.73036e-06 -4.08338e-12 -2.95066e-12)
(1.7305e-06 5.69411e-12 4.36654e-13)
(1.73048e-06 5.27553e-12 3.70495e-12)
(1.73048e-06 -4.68468e-13 -2.14592e-12)
(1.73048e-06 2.97733e-12 3.34718e-12)
(1.73049e-06 -1.86105e-12 -2.84275e-12)
(1.73048e-06 2.92336e-12 3.24681e-12)
(1.73049e-06 -1.66241e-12 -3.24337e-12)
(1.73047e-06 3.16546e-12 3.5981e-12)
(1.73048e-06 -8.5765e-13 -3.69958e-12)
(1.73046e-06 1.82496e-12 3.43858e-12)
(1.73046e-06 2.43973e-13 -3.59844e-12)
(1.73048e-06 -2.83998e-12 2.57889e-12)
(1.73041e-06 4.20144e-12 -2.13586e-12)
(1.73052e-06 -9.93624e-12 2.5642e-13)
(1.73036e-06 9.20146e-12 -2.33482e-14)
(1.73054e-06 -1.5669e-11 -2.44927e-12)
(1.73035e-06 9.42843e-12 2.75617e-12)
(1.73055e-06 -1.87133e-11 -6.08393e-12)
(1.73037e-06 3.54908e-12 6.17007e-12)
(1.73055e-06 -2.1336e-11 -1.02732e-11)
(1.73042e-06 -2.24063e-12 1.02274e-11)
(1.73059e-06 -2.43353e-11 -1.42612e-11)
(1.73048e-06 -7.01135e-12 1.3338e-11)
(1.73063e-06 -2.6307e-11 -1.72572e-11)
(1.73052e-06 3.47265e-12 1.66445e-11)
(1.73052e-06 1.02851e-12 -1.94953e-11)
(1.73022e-06 1.37869e-10 2.84724e-11)
(1.72866e-06 2.02234e-10 1.11216e-11)
(1.88745e-06 -1.45142e-09 2.29741e-09)
(1.90757e-06 -1.75605e-09 -1.57287e-09)
(1.90446e-06 -1.14616e-10 1.6531e-09)
(1.9109e-06 1.04495e-11 -1.79629e-09)
(1.90244e-06 -1.31307e-10 1.98022e-09)
(1.91241e-06 4.18286e-10 -2.14086e-09)
(1.89977e-06 -7.11301e-10 2.25345e-09)
(1.91389e-06 9.92765e-10 -2.28462e-09)
(1.90032e-06 -9.47914e-10 2.2334e-09)
(1.90829e-06 6.19351e-10 -2.14651e-09)
(1.91065e-06 2.0532e-10 1.85815e-09)
(1.89374e-06 -1.18817e-09 -1.63999e-09)
(1.92526e-06 2.15623e-09 1.61492e-09)
(1.88371e-06 -2.63118e-09 -1.46892e-09)
(1.92776e-06 2.62245e-09 1.27588e-09)
(1.88878e-06 -2.07745e-09 -9.82891e-10)
(1.91811e-06 1.44806e-09 6.78017e-10)
(1.89932e-06 -7.98746e-10 -3.91377e-10)
(1.90963e-06 4.0977e-10 2.02138e-10)
(1.90487e-06 -1.44347e-10 -7.69746e-11)
(1.90674e-06 6.0806e-11 2.99567e-11)
(1.90615e-06 -4.38662e-12 -3.21268e-12)
(1.9063e-06 6.20803e-12 5.1693e-13)
(1.90629e-06 5.27112e-12 3.71303e-12)
(1.90629e-06 -5.67066e-14 -2.18136e-12)
(1.90629e-06 2.91638e-12 3.35432e-12)
(1.90629e-06 -1.42539e-12 -2.82624e-12)
(1.90628e-06 2.96252e-12 3.25154e-12)
(1.90629e-06 -1.13116e-12 -3.21776e-12)
(1.90626e-06 3.19065e-12 3.59614e-12)
(1.90628e-06 -1.6644e-13 -3.6861e-12)
(1.90626e-06 1.86574e-12 3.4175e-12)
(1.90626e-06 9.68571e-13 -3.50955e-12)
(1.90628e-06 -2.97108e-12 2.57608e-12)
(1.90621e-06 4.96002e-12 -2.06139e-12)
(1.90631e-06 -9.88158e-12 2.09115e-13)
(1.90615e-06 9.59736e-12 4.49736e-14)
(1.90634e-06 -1.55211e-11 -2.44654e-12)
(1.90613e-06 9.17995e-12 2.77809e-12)
(1.90635e-06 -1.86251e-11 -5.98506e-12)
(1.90616e-06 2.60612e-12 6.12128e-12)
(1.90635e-06 -2.16443e-11 -1.008e-11)
(1.9062e-06 -4.18885e-12 1.01125e-11)
(1.90639e-06 -2.49839e-11 -1.40301e-11)
(1.90627e-06 -9.35726e-12 1.32075e-11)
(1.90644e-06 -2.68317e-11 -1.70549e-11)
(1.90631e-06 5.41419e-12 1.69747e-11)
(1.90633e-06 9.3593e-12 -1.90402e-11)
(1.90599e-06 1.74727e-10 2.98126e-11)
(1.90439e-06 2.36368e-10 1.21801e-11)
(2.0304e-06 -1.85947e-09 2.27828e-09)
(2.05153e-06 -2.02592e-09 -1.60061e-09)
(2.04838e-06 -2.61518e-10 1.64513e-09)
(2.0551e-06 1.18422e-10 -1.81726e-09)
(2.04642e-06 -2.23068e-10 1.98672e-09)
(2.05648e-06 5.14701e-10 -2.14942e-09)
(2.044e-06 -7.80382e-10 2.25332e-09)
(2.05756e-06 1.05975e-09 -2.27236e-09)
(2.04505e-06 -1.02743e-09 2.22225e-09)
(2.05138e-06 7.3664e-10 -2.10664e-09)
(2.05586e-06 6.11483e-11 1.83528e-09)
(2.03653e-06 -1.02909e-09 -1.61316e-09)
(2.0705e-06 1.98938e-09 1.59645e-09)
(2.02673e-06 -2.47855e-09 -1.46249e-09)
(2.07259e-06 2.49607e-09 1.27889e-09)
(2.03229e-06 -1.99258e-09 -9.89093e-10)
(2.0625e-06 1.39976e-09 6.85059e-10)
(2.0432e-06 -7.7574e-10 -3.9562e-10)
(2.05377e-06 3.99999e-10 2.04898e-10)
(2.04889e-06 -1.41515e-10 -7.8473e-11)
(2.05081e-06 5.99081e-11 3.05731e-11)
(2.05021e-06 -4.44816e-12 -3.46296e-12)
(2.05037e-06 6.4336e-12 5.8244e-13)
(2.05035e-06 5.18059e-12 3.71854e-12)
(2.05035e-06 2.84231e-13 -2.16096e-12)
(2.05035e-06 2.86176e-12 3.37798e-12)
(2.05036e-06 -1.02376e-12 -2.7927e-12)
(2.05034e-06 3.01863e-12 3.26942e-12)
(2.05035e-06 -6.53863e-13 -3.20703e-12)
(2.05032e-06 3.2398e-12 3.61931e-12)
(2.05034e-06 4.21799e-13 -3.68271e-12)
(2.05032e-06 1.98157e-12 3.42511e-12)
(2.05031e-06 1.57048e-12 -3.44263e-12)
(2.05033e-06 -2.88202e-12 2.57347e-12)
(2.05026e-06 5.41443e-12 -2.00804e-12)
(2.05037e-06 -9.50221e-12 1.95891e-13)
(2.05021e-06 9.71542e-12 1.01986e-13)
(2.0504e-06 -1.50434e-11 -2.41876e-12)
(2.05018e-06 8.89079e-12 2.79563e-12)
(2.05041e-06 -1.83191e-11 -5.90302e-12)
(2.0502e-06 1.93763e-12 6.09009e-12)
(2.05041e-06 -2.17662e-11 -9.99457e-12)
(2.05025e-06 -5.61694e-12 1.0029e-11)
(2.05045e-06 -2.53555e-11 -1.39622e-11)
(2.05031e-06 -1.10343e-11 1.31418e-11)
(2.0505e-06 -2.69313e-11 -1.70707e-11)
(2.05036e-06 7.87629e-12 1.72919e-11)
(2.05039e-06 1.75447e-11 -1.82741e-11)
(2.05004e-06 2.07968e-10 3.09037e-11)
(2.04842e-06 2.63558e-10 1.30508e-11)
(2.14834e-06 -2.13374e-09 2.27366e-09)
(2.17002e-06 -2.30421e-09 -1.60517e-09)
(2.1669e-06 -3.6854e-10 1.64979e-09)
(2.17373e-06 1.89274e-10 -1.81988e-09)
(2.16506e-06 -2.74066e-10 1.9854e-09)
(2.17495e-06 5.7359e-10 -2.15397e-09)
(2.1629e-06 -8.15556e-10 2.25666e-09)
(2.17567e-06 1.08564e-09 -2.26865e-09)
(2.16436e-06 -1.04821e-09 2.21696e-09)
(2.16909e-06 7.8945e-10 -2.10228e-09)
(2.17542e-06 -3.16171e-11 1.82279e-09)
(2.15416e-06 -9.04367e-10 -1.5953e-09)
(2.18996e-06 1.83329e-09 1.58114e-09)
(2.14463e-06 -2.31761e-09 -1.4552e-09)
(2.19173e-06 2.35042e-09 1.27853e-09)
(2.15054e-06 -1.88782e-09 -9.92192e-10)
(2.18133e-06 1.33301e-09 6.89832e-10)
(2.16168e-06 -7.41341e-10 -3.98981e-10)
(2.17245e-06 3.83744e-10 2.07249e-10)
(2.16747e-06 -1.36064e-10 -7.98371e-11)
(2.16943e-06 5.79038e-11 3.11427e-11)
(2.16882e-06 -4.35505e-12 -3.69259e-12)
(2.16898e-06 6.48522e-12 6.37726e-13)
(2.16896e-06 5.05024e-12 3.71189e-12)
(2.16896e-06 5.54963e-13 -2.11332e-12)
(2.16896e-06 2.81703e-12 3.39421e-12)
(2.16897e-06 -6.47544e-13 -2.79831e-12)
(2.16895e-06 3.08959e-12 3.27248e-12)
(2.16897e-06 -2.28037e-13 -3.20677e-12)
(2.16894e-06 3.29849e-12 3.63141e-12)
(2.16896e-06 9.63893e-13 -3.64484e-12)
(2.16893e-06 2.14446e-12 3.42616e-12)
(2.16893e-06 2.06055e-12 -3.40804e-12)
(2.16894e-06 -2.63731e-12 2.54849e-12)
(2.16887e-06 5.68894e-12 -2.00325e-12)
(2.16898e-06 -8.92753e-12 1.78782e-13)
(2.16881e-06 9.67457e-12 1.27168e-13)
(2.16901e-06 -1.43219e-11 -2.4031e-12)
(2.16879e-06 8.58642e-12 2.79658e-12)
(2.16902e-06 -1.77611e-11 -5.86037e-12)
(2.1688e-06 1.41946e-12 6.01502e-12)
(2.16903e-06 -2.155e-11 -9.97716e-12)
(2.16885e-06 -6.63918e-12 1.00407e-11)
(2.16906e-06 -2.53398e-11 -1.39533e-11)
(2.16891e-06 -1.21097e-11 1.31128e-11)
(2.16911e-06 -2.65563e-11 -1.7118e-11)
(2.16896e-06 1.04179e-11 1.72723e-11)
(2.16901e-06 2.49649e-11 -1.77704e-11)
(2.16864e-06 2.36631e-10 3.20011e-11)
(2.16703e-06 2.83462e-10 1.37913e-11)
(2.2459e-06 -2.35092e-09 2.28665e-09)
(2.26774e-06 -2.56658e-09 -1.60722e-09)
(2.26473e-06 -4.48688e-10 1.65667e-09)
(2.2715e-06 2.20197e-10 -1.8142e-09)
(2.26303e-06 -2.88282e-10 1.98154e-09)
(2.27255e-06 5.91535e-10 -2.1531e-09)
(2.26112e-06 -8.0951e-10 2.25715e-09)
(2.27297e-06 1.07318e-09 -2.26662e-09)
(2.26289e-06 -1.02737e-09 2.2144e-09)
(2.26615e-06 7.96259e-10 -2.10035e-09)
(2.27405e-06 -8.92546e-11 1.81851e-09)
(2.25127e-06 -8.01344e-10 -1.58529e-09)
(2.28841e-06 1.68308e-09 1.57009e-09)
(2.24199e-06 -2.15331e-09 -1.44908e-09)
(2.28993e-06 2.19642e-09 1.27723e-09)
(2.24813e-06 -1.77272e-09 -9.94259e-10)
(2.27934e-06 1.256e-09 6.93433e-10)
(2.25944e-06 -7.00299e-10 -4.0189e-10)
(2.27035e-06 3.63685e-10 2.09339e-10)
(2.2653e-06 -1.29053e-10 -8.1086e-11)
(2.26729e-06 5.52426e-11 3.16736e-11)
(2.26668e-06 -4.16145e-12 -3.90331e-12)
(2.26684e-06 6.42597e-12 6.8465e-13)
(2.26682e-06 4.89672e-12 3.69813e-12)
(2.26682e-06 7.55825e-13 -2.08085e-12)
(2.26682e-06 2.78443e-12 3.40372e-12)
(2.26682e-06 -2.89843e-13 -2.80542e-12)
(2.2668e-06 3.16636e-12 3.27149e-12)
(2.26682e-06 1.58935e-13 -3.22519e-12)
(2.26679e-06 3.35939e-12 3.63322e-12)
(2.26681e-06 1.44732e-12 -3.56577e-12)
(2.26678e-06 2.32921e-12 3.42267e-12)
(2.26678e-06 2.45511e-12 -3.36725e-12)
(2.2668e-06 -2.30741e-12 2.55175e-12)
(2.26673e-06 5.85522e-12 -2.00636e-12)
(2.26684e-06 -8.22077e-12 1.64312e-13)
(2.26667e-06 9.53387e-12 1.3272e-13)
(2.26687e-06 -1.34429e-11 -2.39458e-12)
(2.26664e-06 8.28308e-12 2.80161e-12)
(2.26687e-06 -1.70223e-11 -5.82805e-12)
(2.26665e-06 1.01834e-12 6.04117e-12)
(2.26688e-06 -2.10544e-11 -9.96779e-12)
(2.26669e-06 -7.31681e-12 1.00703e-11)
(2.26692e-06 -2.50186e-11 -1.39411e-11)
(2.26676e-06 -1.26667e-11 1.31075e-11)
(2.26697e-06 -2.58369e-11 -1.7143e-11)
(2.2668e-06 1.2936e-11 1.71964e-11)
(2.26687e-06 3.13632e-11 -1.74902e-11)
(2.26649e-06 2.59454e-10 3.31073e-11)
(2.2649e-06 2.96323e-10 1.44279e-11)
(2.3267e-06 -2.50784e-09 2.30239e-09)
(2.34834e-06 -2.78744e-09 -1.61497e-09)
(2.34551e-06 -5.05937e-10 1.65569e-09)
(2.35208e-06 2.29238e-10 -1.80897e-09)
(2.34394e-06 -2.82e-10 1.97832e-09)
(2.35297e-06 5.80091e-10 -2.15052e-09)
(2.34227e-06 -7.72546e-10 2.25609e-09)
(2.35315e-06 1.03035e-09 -2.26491e-09)
(2.34425e-06 -9.7488e-10 2.21187e-09)
(2.34622e-06 7.68937e-10 -2.09526e-09)
(2.3554e-06 -1.2125e-10 1.81795e-09)
(2.33148e-06 -7.13574e-10 -1.57977e-09)
(2.36956e-06 1.53681e-09 1.56246e-09)
(2.3224e-06 -1.98742e-09 -1.44453e-09)
(2.37091e-06 2.03833e-09 1.27611e-09)
(2.3287e-06 -1.65131e-09 -9.9605e-10)
(2.3602e-06 1.17298e-09 6.96457e-10)
(2.3401e-06 -6.55193e-10 -4.0455e-10)
(2.35113e-06 3.41314e-10 2.11243e-10)
(2.34602e-06 -1.21097e-10 -8.22363e-11)
(2.34804e-06 5.21798e-11 3.21679e-11)
(2.34741e-06 -3.90379e-12 -4.09722e-12)
(2.34758e-06 6.29078e-12 7.24377e-13)
(2.34756e-06 4.71949e-12 3.67869e-12)
(2.34756e-06 8.98383e-13 -2.09127e-12)
(2.34756e-06 2.74899e-12 3.41094e-12)
(2.34757e-06 4.09346e-14 -2.80867e-12)
(2.34755e-06 3.22296e-12 3.26757e-12)
(2.34756e-06 4.98321e-13 -3.2375e-12)
(2.34753e-06 3.39438e-12 3.63773e-12)
(2.34755e-06 1.83393e-12 -3.56437e-12)
(2.34752e-06 2.49397e-12 3.41944e-12)
(2.34752e-06 2.7394e-12 -3.34552e-12)
(2.34754e-06 -1.9516e-12 2.56931e-12)
(2.34747e-06 5.91672e-12 -1.99716e-12)
(2.34758e-06 -7.44727e-12 1.57578e-13)
(2.34741e-06 9.30795e-12 1.42422e-13)
(2.34761e-06 -1.2491e-11 -2.38455e-12)
(2.34737e-06 7.97259e-12 2.81016e-12)
(2.34762e-06 -1.6186e-11 -5.79828e-12)
(2.34739e-06 6.92375e-13 6.15064e-12)
(2.34762e-06 -2.03587e-11 -9.9465e-12)
(2.34743e-06 -7.69235e-12 1.00975e-11)
(2.34766e-06 -2.44247e-11 -1.39244e-11)
(2.34749e-06 -1.27846e-11 1.31449e-11)
(2.34771e-06 -2.48228e-11 -1.71487e-11)
(2.34753e-06 1.5254e-11 1.72559e-11)
(2.34761e-06 3.65771e-11 -1.73374e-11)
(2.34722e-06 2.75424e-10 3.42e-11)
(2.34567e-06 3.02451e-10 1.50156e-11)
(2.39357e-06 -2.58888e-09 2.31585e-09)
(2.41475e-06 -2.94611e-09 -1.62281e-09)
(2.41213e-06 -5.44692e-10 1.65516e-09)
(2.41839e-06 2.29926e-10 -1.80648e-09)
(2.41069e-06 -2.65993e-10 1.97589e-09)
(2.41915e-06 5.51641e-10 -2.14828e-09)
(2.40922e-06 -7.16742e-10 2.25497e-09)
(2.41916e-06 9.66736e-10 -2.26404e-09)
(2.41133e-06 -9.04842e-10 2.20959e-09)
(2.41221e-06 7.23753e-10 -2.08926e-09)
(2.4224e-06 -1.35282e-10 1.81876e-09)
(2.39763e-06 -6.363e-10 -1.57698e-09)
(2.43637e-06 1.39399e-09 1.55699e-09)
(2.38872e-06 -1.82046e-09 -1.44115e-09)
(2.43761e-06 1.87764e-09 1.27546e-09)
(2.3951e-06 -1.5259e-09 -9.97762e-10)
(2.42683e-06 1.08631e-09 6.99145e-10)
(2.40657e-06 -6.07532e-10 -4.07027e-10)
(2.41771e-06 3.17492e-10 2.12997e-10)
(2.41254e-06 -1.1255e-10 -8.32937e-11)
(2.41459e-06 4.886e-11 3.26248e-11)
(2.41395e-06 -3.60619e-12 -4.27223e-12)
(2.41412e-06 6.09837e-12 7.59975e-13)
(2.4141e-06 4.51717e-12 3.65854e-12)
(2.4141e-06 1.00584e-12 -2.09954e-12)
(2.4141e-06 2.69445e-12 3.41672e-12)
(2.41411e-06 3.32972e-13 -2.82941e-12)
(2.41409e-06 3.23904e-12 3.2631e-12)
(2.4141e-06 7.79894e-13 -3.18252e-12)
(2.41407e-06 3.37663e-12 3.64521e-12)
(2.41409e-06 2.12844e-12 -3.57053e-12)
(2.41406e-06 2.60544e-12 3.4189e-12)
(2.41406e-06 2.93385e-12 -3.33431e-12)
(2.41408e-06 -1.60541e-12 2.51731e-12)
(2.41401e-06 5.87447e-12 -1.97695e-12)
(2.41412e-06 -6.66358e-12 1.59932e-13)
(2.41395e-06 8.99517e-12 1.61945e-13)
(2.41415e-06 -1.15246e-11 -2.37234e-12)
(2.41391e-06 7.64675e-12 2.8209e-12)
(2.41416e-06 -1.52973e-11 -5.77015e-12)
(2.41392e-06 4.56971e-13 6.16382e-12)
(2.41416e-06 -1.95069e-11 -9.91841e-12)
(2.41396e-06 -7.7389e-12 1.01315e-11)
(2.41419e-06 -2.35461e-11 -1.3907e-11)
(2.41401e-06 -1.254e-11 1.31985e-11)
(2.41424e-06 -2.35189e-11 -1.71522e-11)
(2.41406e-06 1.72016e-11 1.73456e-11)
(2.41416e-06 4.04892e-11 -1.72567e-11)
(2.41376e-06 2.84197e-10 3.51992e-11)
(2.41224e-06 3.02185e-10 1.55595e-11)
(2.44883e-06 -2.5931e-09 2.3269e-09)
(2.46933e-06 -3.03478e-09 -1.62798e-09)
(2.46696e-06 -5.66914e-10 1.65589e-09)
(2.47284e-06 2.25932e-10 -1.80577e-09)
(2.46563e-06 -2.44111e-10 1.97401e-09)
(2.47349e-06 5.13836e-10 -2.14655e-09)
(2.46432e-06 -6.50962e-10 2.25425e-09)
(2.47338e-06 8.89736e-10 -2.26412e-09)
(2.46651e-06 -8.25729e-10 2.20904e-09)
(2.46647e-06 6.69998e-10 -2.08467e-09)
(2.47745e-06 -1.38032e-10 1.82013e-09)
(2.45208e-06 -5.6584e-10 -1.57608e-09)
(2.49125e-06 1.2542e-09 1.55176e-09)
(2.44329e-06 -1.65287e-09 -1.43845e-09)
(2.49242e-06 1.71485e-09 1.27514e-09)
(2.44971e-06 -1.39804e-09 -9.99391e-10)
(2.48161e-06 9.97405e-10 7.0158e-10)
(2.46122e-06 -5.58241e-10 -4.09333e-10)
(2.47244e-06 2.92734e-10 2.14614e-10)
(2.46723e-06 -1.03618e-10 -8.4262e-11)
(2.4693e-06 4.53635e-11 3.30474e-11)
(2.46865e-06 -3.28371e-12 -4.42745e-12)
(2.46882e-06 5.85828e-12 7.89859e-13)
(2.4688e-06 4.28734e-12 3.63717e-12)
(2.4688e-06 1.08801e-12 -2.10194e-12)
(2.4688e-06 2.6104e-12 3.42106e-12)
(2.46881e-06 5.72972e-13 -2.81682e-12)
(2.46879e-06 3.20081e-12 3.25758e-12)
(2.46881e-06 9.90093e-13 -3.14734e-12)
(2.46878e-06 3.29101e-12 3.65541e-12)
(2.4688e-06 2.33024e-12 -3.57417e-12)
(2.46877e-06 2.64354e-12 3.41757e-12)
(2.46877e-06 3.04744e-12 -3.32397e-12)
(2.46878e-06 -1.28914e-12 2.46816e-12)
(2.46872e-06 5.72891e-12 -1.95675e-12)
(2.46882e-06 -5.91509e-12 1.57951e-13)
(2.46865e-06 8.59443e-12 1.86879e-13)
(2.46886e-06 -1.05781e-11 -2.35919e-12)
(2.46862e-06 7.29773e-12 2.82827e-12)
(2.46886e-06 -1.43692e-11 -5.75196e-12)
(2.46862e-06 3.24864e-13 6.13228e-12)
(2.46887e-06 -1.85166e-11 -9.89345e-12)
(2.46866e-06 -7.47482e-12 1.01396e-11)
(2.4689e-06 -2.23732e-11 -1.38967e-11)
(2.46871e-06 -1.19773e-11 1.32313e-11)
(2.46895e-06 -2.19376e-11 -1.71552e-11)
(2.46875e-06 1.86915e-11 1.74381e-11)
(2.46887e-06 4.30207e-11 -1.72228e-11)
(2.46847e-06 2.85918e-10 3.60628e-11)
(2.46698e-06 2.95942e-10 1.60715e-11)
(2.49438e-06 -2.52844e-09 2.33702e-09)
(2.51403e-06 -3.05777e-09 -1.62977e-09)
(2.51192e-06 -5.73149e-10 1.65841e-09)
(2.51738e-06 2.17467e-10 -1.80537e-09)
(2.51068e-06 -2.18289e-10 1.97247e-09)
(2.51794e-06 4.7023e-10 -2.14501e-09)
(2.5095e-06 -5.80597e-10 2.25367e-09)
(2.51777e-06 8.05109e-10 -2.26508e-09)
(2.51171e-06 -7.41499e-10 2.20981e-09)
(2.51095e-06 6.10057e-10 -2.08215e-09)
(2.52253e-06 -1.34402e-10 1.82182e-09)
(2.49672e-06 -4.99329e-10 -1.57642e-09)
(2.53617e-06 1.11691e-09 1.54695e-09)
(2.48803e-06 -1.48529e-09 -1.43614e-09)
(2.53731e-06 1.55027e-09 1.27485e-09)
(2.49445e-06 -1.26868e-09 -1.00094e-09)
(2.52649e-06 9.07114e-10 7.0382e-10)
(2.50599e-06 -5.07905e-10 -4.11457e-10)
(2.51729e-06 2.6735e-10 2.161e-10)
(2.51203e-06 -9.44189e-11 -8.51434e-11)
(2.51413e-06 4.17385e-11 3.34341e-11)
(2.51347e-06 -2.9471e-12 -4.56589e-12)
(2.51364e-06 5.57543e-12 8.16834e-13)
(2.51362e-06 4.02674e-12 3.61594e-12)
(2.51362e-06 1.14809e-12 -2.10147e-12)
(2.51362e-06 2.4893e-12 3.42443e-12)
(2.51363e-06 7.59603e-13 -2.79504e-12)
(2.51361e-06 3.09779e-12 3.25427e-12)
(2.51363e-06 1.11766e-12 -3.14401e-12)
(2.5136e-06 3.1289e-12 3.6651e-12)
(2.51362e-06 2.43181e-12 -3.57552e-12)
(2.51359e-06 2.59588e-12 3.41745e-12)
(2.51359e-06 3.05435e-12 -3.31797e-12)
(2.51361e-06 -1.04437e-12 2.47501e-12)
(2.51354e-06 5.4823e-12 -1.94285e-12)
(2.51365e-06 -5.23641e-12 1.53741e-13)
(2.51347e-06 8.10638e-12 2.08418e-13)
(2.51368e-06 -9.66957e-12 -2.34897e-12)
(2.51344e-06 6.91304e-12 2.83325e-12)
(2.51369e-06 -1.33982e-11 -5.74121e-12)
(2.51345e-06 2.77353e-13 6.10427e-12)
(2.51369e-06 -1.73871e-11 -9.8753e-12)
(2.51348e-06 -6.98702e-12 1.01508e-11)
(2.51372e-06 -2.09104e-11 -1.3889e-11)
(2.51352e-06 -1.11198e-11 1.32465e-11)
(2.51377e-06 -2.01026e-11 -1.71691e-11)
(2.51356e-06 1.96561e-11 1.7517e-11)
(2.51369e-06 4.41433e-11 -1.72379e-11)
(2.51329e-06 2.81082e-10 3.67912e-11)
(2.51185e-06 2.84218e-10 1.65266e-11)
(2.53178e-06 -2.40394e-09 2.34673e-09)
(2.55049e-06 -3.01438e-09 -1.63e-09)
(2.54864e-06 -5.64161e-10 1.6608e-09)
(2.55364e-06 2.04445e-10 -1.80456e-09)
(2.54747e-06 -1.89952e-10 1.97111e-09)
(2.55415e-06 4.22894e-10 -2.14342e-09)
(2.54637e-06 -5.08932e-10 2.25312e-09)
(2.55395e-06 7.16987e-10 -2.26668e-09)
(2.54858e-06 -6.55512e-10 2.21124e-09)
(2.54723e-06 5.46838e-10 -2.08173e-09)
(2.55926e-06 -1.27704e-10 1.82368e-09)
(2.53316e-06 -4.35082e-10 -1.57744e-09)
(2.57278e-06 9.82237e-10 1.543e-09)
(2.52453e-06 -1.31833e-09 -1.43416e-09)
(2.5739e-06 1.38413e-09 1.27433e-09)
(2.53095e-06 -1.13815e-09 -1.00243e-09)
(2.5631e-06 8.15928e-10 7.05898e-10)
(2.5425e-06 -4.56919e-10 -4.13384e-10)
(2.55387e-06 2.41541e-10 2.17451e-10)
(2.54857e-06 -8.50229e-11 -8.59422e-11)
(2.55068e-06 3.80172e-11 3.37859e-11)
(2.55002e-06 -2.60219e-12 -4.68857e-12)
(2.5502e-06 5.25196e-12 8.40644e-13)
(2.55017e-06 3.73149e-12 3.59495e-12)
(2.55018e-06 1.17914e-12 -2.1013e-12)
(2.55018e-06 2.3251e-12 3.42532e-12)
(2.55018e-06 8.88804e-13 -2.80316e-12)
(2.55016e-06 2.92353e-12 3.24873e-12)
(2.55018e-06 1.16997e-12 -3.13865e-12)
(2.55015e-06 2.88442e-12 3.67593e-12)
(2.55018e-06 2.43184e-12 -3.57818e-12)
(2.55014e-06 2.45479e-12 3.4163e-12)
(2.55015e-06 2.9515e-12 -3.31386e-12)
(2.55016e-06 -9.00823e-13 2.49391e-12)
(2.55009e-06 5.14114e-12 -1.93479e-12)
(2.5502e-06 -4.64885e-12 1.52864e-13)
(2.55003e-06 7.52469e-12 2.25672e-13)
(2.55023e-06 -8.80645e-12 -2.33804e-12)
(2.54999e-06 6.47968e-12 2.8316e-12)
(2.55024e-06 -1.23772e-11 -5.74137e-12)
(2.55e-06 3.0311e-13 6.08464e-12)
(2.55025e-06 -1.61071e-11 -9.86516e-12)
(2.55003e-06 -6.30113e-12 1.0161e-11)
(2.55027e-06 -1.91683e-11 -1.38859e-11)
(2.55007e-06 -1.00007e-11 1.32589e-11)
(2.55032e-06 -1.80385e-11 -1.71886e-11)
(2.5501e-06 2.00525e-11 1.75774e-11)
(2.55025e-06 4.38673e-11 -1.72937e-11)
(2.54985e-06 2.7031e-10 3.74457e-11)
(2.54844e-06 2.67556e-10 1.69302e-11)
(2.56232e-06 -2.2279e-09 2.35573e-09)
(2.58003e-06 -2.90562e-09 -1.63042e-09)
(2.57844e-06 -5.41994e-10 1.66007e-09)
(2.58299e-06 1.86605e-10 -1.80354e-09)
(2.57731e-06 -1.6036e-10 1.96996e-09)
(2.58346e-06 3.73307e-10 -2.14191e-09)
(2.57628e-06 -4.37823e-10 2.25272e-09)
(2.58326e-06 6.27655e-10 -2.26861e-09)
(2.57845e-06 -5.70185e-10 2.21288e-09)
(2.57666e-06 4.81982e-10 -2.0828e-09)
(2.589e-06 -1.20127e-10 1.82566e-09)
(2.56273e-06 -3.72467e-10 -1.57867e-09)
(2.60243e-06 8.5028e-10 1.53978e-09)
(2.55413e-06 -1.15248e-09 -1.43244e-09)
(2.60356e-06 1.21673e-09 1.27345e-09)
(2.56053e-06 -1.00635e-09 -1.00372e-09)
(2.59276e-06 7.24145e-10 7.07792e-10)
(2.57209e-06 -4.05535e-10 -4.15128e-10)
(2.58351e-06 2.15444e-10 2.18674e-10)
(2.57818e-06 -7.54766e-11 -8.66614e-11)
(2.58031e-06 3.42162e-11 3.41071e-11)
(2.57964e-06 -2.25411e-12 -4.7957e-12)
(2.57982e-06 4.88993e-12 8.62614e-13)
(2.5798e-06 3.39772e-12 3.57754e-12)
(2.5798e-06 1.17405e-12 -2.10183e-12)
(2.5798e-06 2.11335e-12 3.42585e-12)
(2.57981e-06 9.54297e-13 -2.81572e-12)
(2.57979e-06 2.67593e-12 3.2431e-12)
(2.57981e-06 1.1439e-12 -3.13258e-12)
(2.57978e-06 2.55451e-12 3.6855e-12)
(2.5798e-06 2.33097e-12 -3.58086e-12)
(2.57977e-06 2.21739e-12 3.41442e-12)
(2.57978e-06 2.74218e-12 -3.31071e-12)
(2.57979e-06 -8.63771e-13 2.51335e-12)
(2.57972e-06 4.70287e-12 -1.92285e-12)
(2.57983e-06 -4.15715e-12 1.55956e-13)
(2.57966e-06 6.83241e-12 2.38123e-13)
(2.57986e-06 -7.99355e-12 -2.32909e-12)
(2.57962e-06 5.98318e-12 2.8302e-12)
(2.57987e-06 -1.13037e-11 -5.74309e-12)
(2.57963e-06 3.94445e-13 6.07577e-12)
(2.57988e-06 -1.46697e-11 -9.86206e-12)
(2.57965e-06 -5.44015e-12 1.01696e-11)
(2.5799e-06 -1.71621e-11 -1.38794e-11)
(2.57969e-06 -8.65378e-12 1.32696e-11)
(2.57994e-06 -1.57629e-11 -1.72137e-11)
(2.57972e-06 1.9861e-11 1.76257e-11)
(2.57988e-06 4.22433e-11 -1.73838e-11)
(2.57948e-06 2.54188e-10 3.80676e-11)
(2.5781e-06 2.46531e-10 1.72647e-11)
(2.58706e-06 -2.00856e-09 2.36329e-09)
(2.60377e-06 -2.73334e-09 -1.6317e-09)
(2.60242e-06 -5.09412e-10 1.65757e-09)