/*--------------------------------*- C++ -*----------------------------------*\
| =========                 |                                                 |
| \\      /  F ield         | OpenFOAM: The Open Source CFD Toolbox           |
|  \\    /   O peration     | Version:  2412                                  |
|   \\  /    A nd           | Website:  www.openfoam.com                      |
|    \\/     M anipulation  |                                                 |
\*---------------------------------------------------------------------------*/
FoamFile
{
    version     2.0;
    format      ascii;
    arch        "LSB;label=32;scalar=64";
    class       surfaceScalarField;
    location    "0.0002";
    object      phi;
}
// * * * * * * * * * * * * * * * * * * * * * * * * * * * * * * * * * * * * * //

dimensions      [0 3 -1 0 0 0 0];

oriented        oriented;

internalField   nonuniform List<scalar> 
40656
(
5.37644e-18
5.49522e-24
5.7147e-24
5.37644e-18
-2.04995e-24
-2.18607e-24
5.37644e-18
8.50557e-25
7.69045e-25
5.37644e-18
-9.96572e-25
-1.1262e-24
5.37644e-18
-3.06399e-25
-3.94896e-25
5.37644e-18
-1.78464e-25
-2.38101e-25
5.37644e-18
-2.89921e-25
-3.42212e-25
5.37644e-18
-7.95087e-26
-1.14154e-25
5.37644e-18
-8.32089e-26
-1.05889e-25
5.37644e-18
-7.91687e-26
-9.64074e-26
5.37644e-18
-4.50159e-26
-5.79319e-26
5.37644e-18
-3.8099e-26
-4.76668e-26
5.37644e-18
-3.35597e-26
-4.04344e-26
5.37644e-18
-2.54459e-26
-3.06157e-26
5.37644e-18
-1.8407e-26
-2.24296e-26
5.37644e-18
-1.22452e-26
-1.56923e-26
5.37644e-18
-7.34309e-27
-1.03482e-26
5.37644e-18
-3.83719e-27
-6.54961e-27
5.37644e-18
-1.49953e-27
-3.99594e-27
5.37644e-18
-6.87822e-29
-2.479e-27
5.37644e-18
5.43539e-28
-1.81097e-27
5.37644e-18
6.2514e-28
-1.69432e-27
5.37644e-18
3.48689e-28
-1.94595e-27
5.37644e-18
-2.01586e-28
-2.45292e-27
5.37644e-18
-9.0448e-28
-3.12647e-27
5.37644e-18
-1.72662e-27
-3.95927e-27
5.37644e-18
-2.61929e-27
-4.88226e-27
5.37644e-18
-3.52993e-27
-5.81902e-27
5.37644e-18
-4.49427e-27
-6.76171e-27
5.37644e-18
-5.36455e-27
-7.7236e-27
5.37644e-18
-6.12949e-27
-8.61655e-27
5.37644e-18
-6.84319e-27
-9.48128e-27
5.37644e-18
-7.5604e-27
-1.02688e-26
5.37644e-18
-8.21248e-27
-1.09035e-26
5.37644e-18
-8.83479e-27
-1.15242e-26
5.37644e-18
-9.3342e-27
-1.20655e-26
5.37644e-18
-9.81596e-27
-1.2601e-26
5.37644e-18
-1.01501e-26
-1.30857e-26
5.37644e-18
-1.0486e-26
-1.34307e-26
5.37644e-18
-1.08846e-26
-1.38274e-26
5.37644e-18
-1.12974e-26
-1.42321e-26
5.37644e-18
-1.17047e-26
-1.46244e-26
5.37644e-18
-1.20997e-26
-1.49971e-26
5.37644e-18
-1.24789e-26
-1.53464e-26
5.37644e-18
-1.28378e-26
-1.56688e-26
5.37644e-18
-1.31735e-26
-1.59619e-26
5.37644e-18
-1.34841e-26
-1.62236e-26
5.37644e-18
-1.37683e-26
-1.64518e-26
5.37644e-18
-1.40195e-26
-1.66456e-26
5.37644e-18
-1.42139e-26
-1.67976e-26
5.37644e-18
-1.43601e-26
-1.68818e-26
5.37644e-18
-1.44738e-26
-1.69233e-26
5.37644e-18
-1.45592e-26
-1.69348e-26
5.37644e-18
-1.46174e-26
-1.69181e-26
5.37644e-18
-1.46491e-26
-1.68728e-26
5.37644e-18
-1.46547e-26
-1.67994e-26
5.37644e-18
-1.46355e-26
-1.66982e-26
5.37644e-18
-1.45929e-26
-1.65675e-26
5.37644e-18
-1.45253e-26
-1.64086e-26
5.37644e-18
-1.44315e-26
-1.62242e-26
5.37644e-18
-1.43118e-26
-1.60168e-26
5.37644e-18
-1.4167e-26
-1.57895e-26
5.37644e-18
-1.39981e-26
-1.55424e-26
5.37644e-18
-1.38062e-26
-1.52749e-26
5.37644e-18
-1.35924e-26
-1.49875e-26
5.37644e-18
-1.3358e-26
-1.46814e-26
5.37644e-18
-1.31043e-26
-1.43562e-26
5.37644e-18
-1.28311e-26
-1.40131e-26
5.37644e-18
-1.25383e-26
-1.36535e-26
5.37644e-18
-1.2228e-26
-1.32786e-26
5.37644e-18
-1.19029e-26
-1.28901e-26
5.37644e-18
-1.15642e-26
-1.24895e-26
5.37644e-18
-1.12123e-26
-1.20771e-26
5.37644e-18
-1.08485e-26
-1.16546e-26
5.37644e-18
-1.04746e-26
-1.1223e-26
5.37644e-18
-1.00909e-26
-1.07819e-26
5.37644e-18
-9.69647e-27
-1.03324e-26
5.37644e-18
-9.29128e-27
-9.8765e-27
5.37644e-18
-8.87813e-27
-9.41515e-27
5.37644e-18
-8.45892e-27
-8.95027e-27
5.37644e-18
-8.03368e-27
-8.48222e-27
5.37644e-18
-7.60246e-27
-8.01118e-27
5.37644e-18
-7.16576e-27
-7.53678e-27
5.37644e-18
-6.72344e-27
-7.05792e-27
5.37644e-18
-6.27388e-27
-6.573e-27
5.37644e-18
-5.81626e-27
-6.08292e-27
5.37644e-18
-5.34954e-27
-5.58721e-27
5.37644e-18
-4.87119e-27
-5.08289e-27
5.37644e-18
-4.37524e-27
-4.56356e-27
5.37644e-18
-3.86498e-27
-4.03338e-27
5.37644e-18
-3.31537e-27
-3.46845e-27
5.37644e-18
-2.7007e-27
-2.83321e-27
5.37644e-18
-2.19148e-27
-2.30682e-27
5.37644e-18
-1.62513e-27
-1.73664e-27
5.37644e-18
-9.09318e-28
-9.95497e-28
5.37644e-18
-1.68965e-27
-1.88545e-27
5.37644e-18
-4.87944e-28
-6.65769e-28
5.37644e-18
-3.38678e-27
-3.51809e-27
5.37644e-18
-5.03079e-27
-5.00977e-27
-5.36631e-28
-5.32894e-28
1.12778e-17
6.20841e-24
4.26551e-23
1.12778e-17
-1.38705e-24
-1.78847e-23
1.12778e-17
2.18016e-24
3.92347e-24
1.12778e-17
-2.10046e-25
-5.92374e-24
1.12778e-17
6.96532e-25
-2.45417e-24
1.12778e-17
7.04253e-25
-1.53115e-24
1.12778e-17
3.91172e-25
-1.92368e-24
1.12778e-17
4.73952e-25
-9.49492e-25
1.12778e-17
3.29482e-25
-7.29024e-25
1.12778e-17
2.16612e-25
-5.91787e-25
1.12778e-17
1.69085e-25
-4.08354e-25
1.12778e-17
1.13043e-25
-3.11197e-25
1.12778e-17
7.70265e-26
-2.47959e-25
1.12778e-17
5.9624e-26
-1.93555e-25
1.12778e-17
4.96348e-26
-1.53968e-25
1.12778e-17
4.47055e-26
-1.24738e-25
1.12778e-17
4.31593e-26
-1.02295e-25
1.12778e-17
4.28329e-26
-8.57385e-26
1.12778e-17
4.26228e-26
-7.42568e-26
1.12778e-17
4.20124e-26
-6.68252e-26
1.12778e-17
4.07324e-26
-6.25061e-26
1.12778e-17
3.89427e-26
-6.01268e-26
1.12778e-17
3.67057e-26
-5.90481e-26
1.12778e-17
3.40881e-26
-5.88796e-26
1.12778e-17
3.12102e-26
-5.92269e-26
1.12778e-17
2.82006e-26
-6.00357e-26
1.12778e-17
2.51796e-26
-6.12947e-26
1.12778e-17
2.22297e-26
-6.26854e-26
1.12778e-17
1.94043e-26
-6.40823e-26
1.12778e-17
1.67519e-26
-6.54314e-26
1.12778e-17
1.42516e-26
-6.66473e-26
1.12778e-17
1.18451e-26
-6.79231e-26
1.12778e-17
9.53388e-27
-6.92081e-26
1.12778e-17
7.35119e-27
-7.04084e-26
1.12778e-17
5.29414e-27
-7.1663e-26
1.12778e-17
3.52028e-27
-7.3018e-26
1.12778e-17
1.82232e-27
-7.42602e-26
1.12778e-17
3.6382e-28
-7.53201e-26
1.12778e-17
-9.94346e-28
-7.61104e-26
1.12778e-17
-2.28879e-27
-7.67747e-26
1.12778e-17
-3.49498e-27
-7.74687e-26
1.12778e-17
-4.61904e-27
-7.81098e-26
1.12778e-17
-5.66184e-27
-7.86681e-26
1.12778e-17
-6.62119e-27
-7.9127e-26
1.12778e-17
-7.49541e-27
-7.94834e-26
1.12778e-17
-8.28366e-27
-7.97287e-26
1.12778e-17
-8.98439e-27
-7.98572e-26
1.12778e-17
-9.60179e-27
-7.98682e-26
1.12778e-17
-1.01378e-26
-7.97619e-26
1.12778e-17
-1.05709e-26
-7.95388e-26
1.12778e-17
-1.09161e-26
-7.92004e-26
1.12778e-17
-1.1193e-26
-7.875e-26
1.12778e-17
-1.14091e-26
-7.81885e-26
1.12778e-17
-1.15684e-26
-7.75211e-26
1.12778e-17
-1.16752e-26
-7.67474e-26
1.12778e-17
-1.1732e-26
-7.58689e-26
1.12778e-17
-1.17401e-26
-7.48916e-26
1.12778e-17
-1.17029e-26
-7.38195e-26
1.12778e-17
-1.1624e-26
-7.2655e-26
1.12778e-17
-1.15067e-26
-7.14053e-26
1.12778e-17
-1.13541e-26
-7.00765e-26
1.12778e-17
-1.11695e-26
-6.86778e-26
1.12778e-17
-1.09556e-26
-6.72118e-26
1.12778e-17
-1.0715e-26
-6.56798e-26
1.12778e-17
-1.04498e-26
-6.40853e-26
1.12778e-17
-1.01619e-26
-6.24332e-26
1.12778e-17
-9.85321e-27
-6.0728e-26
1.12778e-17
-9.52576e-27
-5.89757e-26
1.12778e-17
-9.18497e-27
-5.71816e-26
1.12778e-17
-8.83324e-27
-5.53506e-26
1.12778e-17
-8.47264e-27
-5.3485e-26
1.12778e-17
-8.10548e-27
-5.15895e-26
1.12778e-17
-7.73362e-27
-4.96676e-26
1.12778e-17
-7.3587e-27
-4.77247e-26
1.12778e-17
-6.98228e-27
-4.5764e-26
1.12778e-17
-6.60533e-27
-4.37889e-26
1.12778e-17
-6.22873e-27
-4.18041e-26
1.12778e-17
-5.85512e-27
-3.98152e-26
1.12778e-17
-5.48533e-27
-3.78243e-26
1.12778e-17
-5.11903e-27
-3.58345e-26
1.12778e-17
-4.75613e-27
-3.38465e-26
1.12778e-17
-4.39601e-27
-3.18624e-26
1.12778e-17
-4.03901e-27
-2.98805e-26
1.12778e-17
-3.68462e-27
-2.79016e-26
1.12778e-17
-3.33279e-27
-2.59234e-26
1.12778e-17
-2.98583e-27
-2.39451e-26
1.12778e-17
-2.64667e-27
-2.1967e-26
1.12778e-17
-2.31319e-27
-1.99636e-26
1.12778e-17
-1.9838e-27
-1.79152e-26
1.12778e-17
-1.67573e-27
-1.58683e-26
1.12778e-17
-1.3666e-27
-1.3642e-26
1.12778e-17
-1.0329e-27
-1.11375e-26
1.12778e-17
-8.96389e-28
-9.4782e-27
1.12778e-17
-7.08643e-28
-6.88905e-27
1.12778e-17
-3.97472e-28
-3.57497e-27
1.12778e-17
-2.07331e-27
-8.11386e-27
1.12778e-17
-1.19387e-27
3.54328e-27
1.12778e-17
-6.46748e-27
-1.09665e-26
1.12778e-17
-8.82936e-27
-1.18708e-26
-6.27569e-27
2.66276e-26
1.49768e-17
5.13134e-24
5.36445e-23
1.49768e-17
7.4745e-25
-3.34308e-23
1.49768e-17
1.69637e-24
1.13767e-23
1.49768e-17
2.08616e-25
-9.34467e-24
1.49768e-17
8.49166e-25
-2.61065e-24
1.49768e-17
6.71222e-25
-1.1307e-24
1.49768e-17
4.60174e-25
-2.2831e-24
1.49768e-17
4.9438e-25
-9.19149e-25
1.49768e-17
3.4824e-25
-7.51238e-25
1.49768e-17
2.4723e-25
-6.75581e-25
1.49768e-17
1.93007e-25
-4.57193e-25
1.49768e-17
1.30825e-25
-3.56211e-25
1.49768e-17
9.07321e-26
-2.87625e-25
1.49768e-17
7.02271e-26
-2.18203e-25
1.49768e-17
5.77778e-26
-1.65773e-25
1.49768e-17
5.10262e-26
-1.26504e-25
1.49768e-17
4.85922e-26
-9.5787e-26
1.49768e-17
4.78835e-26
-7.36884e-26
1.49768e-17
4.73975e-26
-5.92028e-26
1.49768e-17
4.64495e-26
-5.00768e-26
1.49768e-17
4.48174e-26
-4.44428e-26
1.49768e-17
4.26076e-26
-4.18477e-26
1.49768e-17
3.98758e-26
-4.13836e-26
1.49768e-17
3.68282e-26
-4.22628e-26
1.49768e-17
3.35286e-26
-4.39768e-26
1.49768e-17
3.00587e-26
-4.60944e-26
1.49768e-17
2.65779e-26
-4.84798e-26
1.49768e-17
2.31632e-26
-5.09966e-26
1.49768e-17
1.98544e-26
-5.35982e-26
1.49768e-17
1.6674e-26
-5.63625e-26
1.49768e-17
1.36362e-26
-5.91756e-26
1.49768e-17
1.07138e-26
-6.20165e-26
1.49768e-17
7.90612e-27
-6.49254e-26
1.49768e-17
5.4138e-27
-6.76764e-26
1.49768e-17
3.11796e-27
-7.01975e-26
1.49768e-17
1.18006e-27
-7.27895e-26
1.49768e-17
-6.54405e-28
-7.52908e-26
1.49768e-17
-2.42312e-27
-7.74918e-26
1.49768e-17
-4.0918e-27
-7.94834e-26
1.49768e-17
-5.67034e-27
-8.13085e-26
1.49768e-17
-7.13439e-27
-8.3009e-26
1.49768e-17
-8.48793e-27
-8.46056e-26
1.49768e-17
-9.73183e-27
-8.60787e-26
1.49768e-17
-1.08664e-26
-8.74039e-26
1.49768e-17
-1.18901e-26
-8.85765e-26
1.49768e-17
-1.27998e-26
-8.9593e-26
1.49768e-17
-1.35902e-26
-9.04467e-26
1.49768e-17
-1.42684e-26
-9.11314e-26
1.49768e-17
-1.48408e-26
-9.16454e-26
1.49768e-17
-1.53099e-26
-9.19973e-26
1.49768e-17
-1.56861e-26
-9.22232e-26
1.49768e-17
-1.5978e-26
-9.22961e-26
1.49768e-17
-1.61909e-26
-9.22029e-26
1.49768e-17
-1.63295e-26
-9.19418e-26
1.49768e-17
-1.64001e-26
-9.15148e-26
1.49768e-17
-1.64071e-26
-9.09281e-26
1.49768e-17
-1.63499e-26
-9.01867e-26
1.49768e-17
-1.62299e-26
-8.92926e-26
1.49768e-17
-1.60522e-26
-8.82548e-26
1.49768e-17
-1.58238e-26
-8.70798e-26
1.49768e-17
-1.55509e-26
-8.57766e-26
1.49768e-17
-1.52385e-26
-8.4352e-26
1.49768e-17
-1.48906e-26
-8.28099e-26
1.49768e-17
-1.45099e-26
-8.11592e-26
1.49768e-17
-1.40995e-26
-7.9408e-26
1.49768e-17
-1.36625e-26
-7.75616e-26
1.49768e-17
-1.32011e-26
-7.56272e-26
1.49768e-17
-1.27191e-26
-7.3614e-26
1.49768e-17
-1.22224e-26
-7.15289e-26
1.49768e-17
-1.17149e-26
-6.9376e-26
1.49768e-17
-1.11991e-26
-6.71633e-26
1.49768e-17
-1.06777e-26
-6.48961e-26
1.49768e-17
-1.01534e-26
-6.25809e-26
1.49768e-17
-9.62863e-27
-6.02234e-26
1.49768e-17
-9.10459e-27
-5.78318e-26
1.49768e-17
-8.58242e-27
-5.54139e-26
1.49768e-17
-8.06428e-27
-5.29773e-26
1.49768e-17
-7.55283e-27
-5.0525e-26
1.49768e-17
-7.04827e-27
-4.80612e-26
1.49768e-17
-6.54998e-27
-4.55882e-26
1.49768e-17
-6.05632e-27
-4.31099e-26
1.49768e-17
-5.56566e-27
-4.06265e-26
1.49768e-17
-5.07832e-27
-3.81389e-26
1.49768e-17
-4.59534e-27
-3.56441e-26
1.49768e-17
-4.11858e-27
-3.31381e-26
1.49768e-17
-3.65197e-27
-3.06213e-26
1.49768e-17
-3.19889e-27
-2.80953e-26
1.49768e-17
-2.7603e-27
-2.55213e-26
1.49768e-17
-2.3371e-27
-2.28852e-26
1.49768e-17
-1.9509e-27
-2.02846e-26
1.49768e-17
-1.59368e-27
-1.74202e-26
1.49768e-17
-1.24036e-27
-1.41593e-26
1.49768e-17
-1.08164e-27
-1.23211e-26
1.49768e-17
-1.03791e-27
-8.65061e-27
1.49768e-17
-9.8612e-28
-3.94898e-27
1.49768e-17
-2.27943e-27
-1.2211e-26
1.49768e-17
-2.31902e-27
9.6785e-27
1.49768e-17
-6.71583e-27
-1.71808e-26
1.49768e-17
-8.32625e-27
-1.6972e-26
-9.30583e-27
2.56781e-26
1.73666e-17
3.41547e-24
5.62011e-23
1.73666e-17
5.98743e-25
-3.08485e-23
1.73666e-17
9.56972e-25
1.31714e-23
1.73666e-17
1.86292e-25
-1.13221e-23
1.73666e-17
4.32146e-25
-1.76251e-24
1.73666e-17
3.27941e-25
-1.26853e-24
1.73666e-17
2.92553e-25
-2.66529e-24
1.73666e-17
2.99903e-25
-9.78389e-25
1.73666e-17
1.99557e-25
-8.79978e-25
1.73666e-17
1.53941e-25
-8.02425e-25
1.73666e-17
1.18786e-25
-5.38269e-25
1.73666e-17
7.96507e-26
-4.33892e-25
1.73666e-17
5.49063e-26
-3.51202e-25
1.73666e-17
4.32572e-26
-2.61619e-25
1.73666e-17
3.73548e-26
-1.95499e-25
1.73666e-17
3.55675e-26
-1.47816e-25
1.73666e-17
3.62865e-26
-1.10971e-25
1.73666e-17
3.75675e-26
-8.45532e-26
1.73666e-17
3.83155e-26
-6.70043e-26
1.73666e-17
3.82342e-26
-5.56989e-26
1.73666e-17
3.72113e-26
-4.86898e-26
1.73666e-17
3.53222e-26
-4.51383e-26
1.73666e-17
3.27864e-26
-4.39454e-26
1.73666e-17
2.99201e-26
-4.44073e-26
1.73666e-17
2.68825e-26
-4.59647e-26
1.73666e-17
2.36728e-26
-4.8186e-26
1.73666e-17
2.04235e-26
-5.07271e-26
1.73666e-17
1.72333e-26
-5.35217e-26
1.73666e-17
1.41489e-26
-5.65403e-26
1.73666e-17
1.11483e-26
-5.98179e-26
1.73666e-17
8.24063e-27
-6.31596e-26
1.73666e-17
5.4181e-27
-6.64322e-26
1.73666e-17
2.84619e-27
-6.95341e-26
1.73666e-17
6.94116e-28
-7.26863e-26
1.73666e-17
-1.30206e-27
-7.58213e-26
1.73666e-17
-3.22469e-27
-7.88058e-26
1.73666e-17
-5.04308e-27
-8.16216e-26
1.73666e-17
-6.85139e-27
-8.4368e-26
1.73666e-17
-8.55799e-27
-8.70886e-26
1.73666e-17
-1.0152e-26
-8.96999e-26
1.73666e-17
-1.16571e-26
-9.20459e-26
1.73666e-17
-1.30711e-26
-9.42121e-26
1.73666e-17
-1.43763e-26
-9.62142e-26
1.73666e-17
-1.55414e-26
-9.80395e-26
1.73666e-17
-1.65731e-26
-9.96778e-26
1.73666e-17
-1.74893e-26
-1.01127e-25
1.73666e-17
-1.82735e-26
-1.02381e-25
1.73666e-17
-1.89415e-26
-1.03432e-25
1.73666e-17
-1.95025e-26
-1.04279e-25
1.73666e-17
-1.99657e-26
-1.04927e-25
1.73666e-17
-2.03405e-26
-1.05381e-25
1.73666e-17
-2.06315e-26
-1.05635e-25
1.73666e-17
-2.08416e-26
-1.05685e-25
1.73666e-17
-2.09744e-26
-1.05533e-25
1.73666e-17
-2.10314e-26
-1.05184e-25
1.73666e-17
-2.10172e-26
-1.04646e-25
1.73666e-17
-2.0941e-26
-1.03915e-25
1.73666e-17
-2.0797e-26
-1.02999e-25
1.73666e-17
-2.05878e-26
-1.01911e-25
1.73666e-17
-2.03211e-26
-1.00658e-25
1.73666e-17
-2.00016e-26
-9.92458e-26
1.73666e-17
-1.96339e-26
-9.76807e-26
1.73666e-17
-1.9223e-26
-9.59733e-26
1.73666e-17
-1.87714e-26
-9.41315e-26
1.73666e-17
-1.82832e-26
-9.2163e-26
1.73666e-17
-1.7766e-26
-9.00777e-26
1.73666e-17
-1.72225e-26
-8.78855e-26
1.73666e-17
-1.66576e-26
-8.55966e-26
1.73666e-17
-1.60751e-26
-8.32186e-26
1.73666e-17
-1.54776e-26
-8.07568e-26
1.73666e-17
-1.48677e-26
-7.82187e-26
1.73666e-17
-1.42485e-26
-7.56131e-26
1.73666e-17
-1.36228e-26
-7.29481e-26
1.73666e-17
-1.29932e-26
-7.02316e-26
1.73666e-17
-1.23602e-26
-6.74714e-26
1.73666e-17
-1.17261e-26
-6.46777e-26
1.73666e-17
-1.10954e-26
-6.18579e-26
1.73666e-17
-1.04684e-26
-5.9015e-26
1.73666e-17
-9.84433e-27
-5.61548e-26
1.73666e-17
-9.22283e-27
-5.32809e-26
1.73666e-17
-8.60126e-27
-5.03983e-26
1.73666e-17
-7.9803e-27
-4.75096e-26
1.73666e-17
-7.36511e-27
-4.46157e-26
1.73666e-17
-6.75521e-27
-4.17138e-26
1.73666e-17
-6.15386e-27
-3.87986e-26
1.73666e-17
-5.55046e-27
-3.5863e-26
1.73666e-17
-4.95279e-27
-3.2906e-26
1.73666e-17
-4.37366e-27
-2.98818e-26
1.73666e-17
-3.81456e-27
-2.67672e-26
1.73666e-17
-3.29221e-27
-2.36949e-26
1.73666e-17
-2.80877e-27
-2.02856e-26
1.73666e-17
-2.36897e-27
-1.62809e-26
1.73666e-17
-2.10537e-27
-1.39869e-26
1.73666e-17
-2.01449e-27
-9.45679e-27
1.73666e-17
-2.1558e-27
-2.51826e-27
1.73666e-17
-3.1092e-27
-1.19682e-26
1.73666e-17
-3.50631e-27
1.23783e-26
1.73666e-17
-7.36047e-27
-1.29396e-26
1.73666e-17
-7.95885e-27
-9.02622e-27
-8.46904e-27
2.1802e-26
1.88195e-17
1.74242e-24
5.9668e-23
1.88195e-17
4.56303e-25
-3.44222e-23
1.88195e-17
5.58048e-25
1.18461e-23
1.88195e-17
1.01301e-25
-1.18761e-23
1.88195e-17
1.39904e-25
-2.03603e-24
1.88195e-17
1.1242e-25
-1.82498e-24
1.88195e-17
1.04318e-25
-2.9516e-24
1.88195e-17
8.12177e-26
-1.12764e-24
1.88195e-17
3.19668e-26
-1.06868e-24
1.88195e-17
2.2608e-26
-9.38307e-25
1.88195e-17
1.06337e-26
-6.31309e-25
1.88195e-17
1.22113e-27
-5.11777e-25
1.88195e-17
-1.82781e-27
-4.11796e-25
1.88195e-17
8.85439e-28
-3.06327e-25
1.88195e-17
5.78893e-27
-2.29675e-25
1.88195e-17
1.16523e-26
-1.73777e-25
1.88195e-17
1.71606e-26
-1.30537e-25
1.88195e-17
2.14287e-26
-9.9236e-26
1.88195e-17
2.41639e-26
-7.80839e-26
1.88195e-17
2.55774e-26
-6.42016e-26
1.88195e-17
2.57427e-26
-5.60029e-26
1.88195e-17
2.47921e-26
-5.16907e-26
1.88195e-17
2.30425e-26
-5.00563e-26
1.88195e-17
2.07542e-26
-5.02307e-26
1.88195e-17
1.82781e-26
-5.15613e-26
1.88195e-17
1.56411e-26
-5.37961e-26
1.88195e-17
1.29293e-26
-5.65554e-26
1.88195e-17
1.02533e-26
-5.97106e-26
1.88195e-17
7.67109e-27
-6.30985e-26
1.88195e-17
5.13209e-27
-6.65824e-26
1.88195e-17
2.65219e-27
-7.00612e-26
1.88195e-17
2.57227e-28
-7.34567e-26
1.88195e-17
-1.82344e-27
-7.67452e-26
1.88195e-17
-3.74822e-27
-8.00104e-26
1.88195e-17
-5.59078e-27
-8.32136e-26
1.88195e-17
-7.45502e-27
-8.63611e-26
1.88195e-17
-9.19714e-27
-8.94784e-26
1.88195e-17
-1.08585e-26
-9.25682e-26
1.88195e-17
-1.24268e-26
-9.55897e-26
1.88195e-17
-1.39001e-26
-9.83563e-26
1.88195e-17
-1.52988e-26
-1.00923e-25
1.88195e-17
-1.66287e-26
-1.03317e-25
1.88195e-17
-1.7867e-26
-1.05538e-25
1.88195e-17
-1.89693e-26
-1.07564e-25
1.88195e-17
-1.994e-26
-1.09382e-25
1.88195e-17
-2.08037e-26
-1.10998e-25
1.88195e-17
-2.15509e-26
-1.12407e-25
1.88195e-17
-2.21881e-26
-1.13597e-25
1.88195e-17
-2.27298e-26
-1.14569e-25
1.88195e-17
-2.31837e-26
-1.1532e-25
1.88195e-17
-2.35562e-26
-1.15846e-25
1.88195e-17
-2.38509e-26
-1.16148e-25
1.88195e-17
-2.40699e-26
-1.16227e-25
1.88195e-17
-2.4215e-26
-1.16084e-25
1.88195e-17
-2.42883e-26
-1.1572e-25
1.88195e-17
-2.42937e-26
-1.15142e-25
1.88195e-17
-2.42416e-26
-1.14364e-25
1.88195e-17
-2.41224e-26
-1.13389e-25
1.88195e-17
-2.39355e-26
-1.12224e-25
1.88195e-17
-2.3686e-26
-1.10873e-25
1.88195e-17
-2.33778e-26
-1.09341e-25
1.88195e-17
-2.30144e-26
-1.07639e-25
1.88195e-17
-2.26e-26
-1.05785e-25
1.88195e-17
-2.21399e-26
-1.03778e-25
1.88195e-17
-2.16398e-26
-1.01625e-25
1.88195e-17
-2.11089e-26
-9.93454e-26
1.88195e-17
-2.05507e-26
-9.69525e-26
1.88195e-17
-1.99659e-26
-9.445e-26
1.88195e-17
-1.93573e-26
-9.18445e-26
1.88195e-17
-1.87273e-26
-8.91479e-26
1.88195e-17
-1.80794e-26
-8.63658e-26
1.88195e-17
-1.74166e-26
-8.35076e-26
1.88195e-17
-1.67413e-26
-8.05829e-26
1.88195e-17
-1.60558e-26
-7.76014e-26
1.88195e-17
-1.53623e-26
-7.45724e-26
1.88195e-17
-1.46618e-26
-7.15047e-26
1.88195e-17
-1.39577e-26
-6.84029e-26
1.88195e-17
-1.32508e-26
-6.52736e-26
1.88195e-17
-1.25418e-26
-6.21235e-26
1.88195e-17
-1.18305e-26
-5.89599e-26
1.88195e-17
-1.11165e-26
-5.57853e-26
1.88195e-17
-1.04005e-26
-5.26055e-26
1.88195e-17
-9.69027e-27
-4.94229e-26
1.88195e-17
-8.98248e-27
-4.62318e-26
1.88195e-17
-8.27665e-27
-4.30233e-26
1.88195e-17
-7.55828e-27
-3.9785e-26
1.88195e-17
-6.83644e-27
-3.65179e-26
1.88195e-17
-6.12334e-27
-3.31749e-26
1.88195e-17
-5.42228e-27
-2.9722e-26
1.88195e-17
-4.74278e-27
-2.63143e-26
1.88195e-17
-4.09525e-27
-2.25652e-26
1.88195e-17
-3.4872e-27
-1.81314e-26
1.88195e-17
-2.98058e-27
-1.54821e-26
1.88195e-17
-2.60372e-27
-1.06897e-26
1.88195e-17
-2.46597e-27
-3.21028e-27
1.88195e-17
-2.74255e-27
-1.23183e-26
1.88195e-17
-2.68169e-27
1.3308e-26
1.88195e-17
-4.5591e-27
-1.84562e-26
1.88195e-17
-4.84711e-27
-7.44084e-27
-4.96114e-27
2.13087e-26
1.95097e-17
-8.23918e-26
6.0786e-23
1.95097e-17
-1.15532e-25
-3.5376e-23
1.95097e-17
-8.40243e-26
1.29706e-23
1.95097e-17
-1.12413e-25
-1.19896e-23
1.95097e-17
-1.32366e-25
-2.41959e-24
1.95097e-17
-1.40738e-25
-1.92165e-24
1.95097e-17
-1.58838e-25
-2.99352e-24
1.95097e-17
-1.67131e-25
-1.21145e-24
1.95097e-17
-1.59396e-25
-1.16093e-24
1.95097e-17
-1.43834e-25
-9.97558e-25
1.95097e-17
-1.21711e-25
-6.75451e-25
1.95097e-17
-9.73407e-26
-5.4773e-25
1.95097e-17
-7.33545e-26
-4.38805e-25
1.95097e-17
-5.17831e-26
-3.2722e-25
1.95097e-17
-3.33534e-26
-2.46436e-25
1.95097e-17
-1.84558e-26
-1.86417e-25
1.95097e-17
-7.20491e-27
-1.39407e-25
1.95097e-17
7.99046e-28
-1.05485e-25
1.95097e-17
6.03674e-27
-8.28094e-26
1.95097e-17
9.18407e-27
-6.84181e-26
1.95097e-17
1.073e-26
-5.95984e-26
1.95097e-17
1.10093e-26
-5.4861e-26
1.95097e-17
1.04163e-26
-5.28735e-26
1.95097e-17
9.13587e-27
-5.27736e-26
1.95097e-17
7.46352e-27
-5.40664e-26
1.95097e-17
5.59725e-27
-5.64153e-26
1.95097e-17
3.63162e-27
-5.93585e-26
1.95097e-17
1.64368e-27
-6.26703e-26
1.95097e-17
-2.94149e-28
-6.61485e-26
1.95097e-17
-2.21551e-27
-6.97139e-26
1.95097e-17
-4.06562e-27
-7.32343e-26
1.95097e-17
-5.82515e-27
-7.66456e-26
1.95097e-17
-7.55834e-27
-8.00107e-26
1.95097e-17
-9.35127e-27
-8.33472e-26
1.95097e-17
-1.09156e-26
-8.67009e-26
1.95097e-17
-1.24425e-26
-9.00461e-26
1.95097e-17
-1.38857e-26
-9.32505e-26
1.95097e-17
-1.52463e-26
-9.63533e-26
1.95097e-17
-1.65351e-26
-9.93332e-26
1.95097e-17
-1.7757e-26
-1.02137e-25
1.95097e-17
-1.89309e-26
-1.04758e-25
1.95097e-17
-2.00661e-26
-1.07195e-25
1.95097e-17
-2.11107e-26
-1.09462e-25
1.95097e-17
-2.20542e-26
-1.11547e-25
1.95097e-17
-2.29021e-26
-1.13433e-25
1.95097e-17
-2.36648e-26
-1.1512e-25
1.95097e-17
-2.43309e-26
-1.16644e-25
1.95097e-17
-2.49043e-26
-1.17946e-25
1.95097e-17
-2.54053e-26
-1.19018e-25
1.95097e-17
-2.58335e-26
-1.19857e-25
1.95097e-17
-2.61908e-26
-1.20459e-25
1.95097e-17
-2.6484e-26
-1.20821e-25
1.95097e-17
-2.67116e-26
-1.20945e-25
1.95097e-17
-2.68718e-26
-1.20835e-25
1.95097e-17
-2.69648e-26
-1.20492e-25
1.95097e-17
-2.69922e-26
-1.1992e-25
1.95097e-17
-2.69599e-26
-1.19138e-25
1.95097e-17
-2.68659e-26
-1.18151e-25
1.95097e-17
-2.67071e-26
-1.16964e-25
1.95097e-17
-2.64832e-26
-1.1558e-25
1.95097e-17
-2.6198e-26
-1.14005e-25
1.95097e-17
-2.58556e-26
-1.12251e-25
1.95097e-17
-2.54595e-26
-1.10326e-25
1.95097e-17
-2.50149e-26
-1.08243e-25
1.95097e-17
-2.45266e-26
-1.06012e-25
1.95097e-17
-2.4002e-26
-1.03647e-25
1.95097e-17
-2.34445e-26
-1.01165e-25
1.95097e-17
-2.28548e-26
-9.85689e-26
1.95097e-17
-2.22353e-26
-9.58609e-26
1.95097e-17
-2.15884e-26
-9.30534e-26
1.95097e-17
-2.09178e-26
-9.01573e-26
1.95097e-17
-2.02264e-26
-8.71806e-26
1.95097e-17
-1.95165e-26
-8.41339e-26
1.95097e-17
-1.87911e-26
-8.10262e-26
1.95097e-17
-1.80528e-26
-7.78685e-26
1.95097e-17
-1.73018e-26
-7.46656e-26
1.95097e-17
-1.65393e-26
-7.14265e-26
1.95097e-17
-1.57683e-26
-6.81575e-26
1.95097e-17
-1.49912e-26
-6.48663e-26
1.95097e-17
-1.42088e-26
-6.15614e-26
1.95097e-17
-1.34237e-26
-5.82494e-26
1.95097e-17
-1.26307e-26
-5.49374e-26
1.95097e-17
-1.18373e-26
-5.16206e-26
1.95097e-17
-1.10408e-26
-4.82937e-26
1.95097e-17
-1.02374e-26
-4.49486e-26
1.95097e-17
-9.42202e-27
-4.1581e-26
1.95097e-17
-8.59632e-27
-3.8188e-26
1.95097e-17
-7.76787e-27
-3.47022e-26
1.95097e-17
-6.94216e-27
-3.10871e-26
1.95097e-17
-6.1237e-27
-2.74934e-26
1.95097e-17
-5.32487e-27
-2.35424e-26
1.95097e-17
-4.55849e-27
-1.88454e-26
1.95097e-17
-3.84924e-27
-1.58539e-26
1.95097e-17
-3.19929e-27
-1.04985e-26
1.95097e-17
-2.59986e-27
-2.72517e-27
1.95097e-17
-2.08867e-27
-1.16989e-26
1.95097e-17
-1.60474e-27
1.66945e-26
1.95097e-17
-1.08619e-27
-1.71831e-26
1.95097e-17
-8.4805e-28
-4.4046e-27
-1.66644e-28
2.07322e-26
1.95097e-17
-1.90824e-24
6.08616e-23
1.95097e-17
-7.36782e-25
-3.53393e-23
1.95097e-17
-7.60726e-25
1.30792e-23
1.95097e-17
-2.97603e-25
-1.19522e-23
1.95097e-17
-3.71506e-25
-2.39829e-24
1.95097e-17
-3.82207e-25
-1.88297e-24
1.95097e-17
-4.0089e-25
-2.97165e-24
1.95097e-17
-3.93795e-25
-1.19913e-24
1.95097e-17
-3.31288e-25
-1.15246e-24
1.95097e-17
-2.94293e-25
-9.89245e-25
1.95097e-17
-2.42469e-25
-6.69994e-25
1.95097e-17
-1.86613e-25
-5.4381e-25
1.95097e-17
-1.3769e-25
-4.35613e-25
1.95097e-17
-9.84643e-26
-3.24627e-25
1.95097e-17
-6.77785e-26
-2.44362e-25
1.95097e-17
-4.49419e-26
-1.84775e-25
1.95097e-17
-2.88386e-26
-1.38079e-25
1.95097e-17
-1.78515e-26
-1.04255e-25
1.95097e-17
-1.05741e-26
-8.2002e-26
1.95097e-17
-6.09269e-27
-6.79379e-26
1.95097e-17
-3.52424e-27
-5.92215e-26
1.95097e-17
-2.21484e-27
-5.44597e-26
1.95097e-17
-1.82174e-27
-5.23675e-26
1.95097e-17
-2.10585e-27
-5.21631e-26
1.95097e-17
-2.93283e-27
-5.33334e-26
1.95097e-17
-3.97085e-27
-5.55323e-26
1.95097e-17
-5.09859e-27
-5.83527e-26
1.95097e-17
-6.28388e-27
-6.1513e-26
1.95097e-17
-7.50706e-27
-6.47333e-26
1.95097e-17
-8.68562e-27
-6.82079e-26
1.95097e-17
-9.79214e-27
-7.16752e-26
1.95097e-17
-1.08097e-26
-7.50167e-26
1.95097e-17
-1.19972e-26
-7.82805e-26
1.95097e-17
-1.33343e-26
-8.14837e-26
1.95097e-17
-1.4526e-26
-8.46991e-26
1.95097e-17
-1.57833e-26
-8.79581e-26
1.95097e-17
-1.69554e-26
-9.11704e-26
1.95097e-17
-1.80005e-26
-9.42755e-26
1.95097e-17
-1.89841e-26
-9.72241e-26
1.95097e-17
-1.9908e-26
-1.00029e-25
1.95097e-17
-2.07963e-26
-1.02666e-25
1.95097e-17
-2.16498e-26
-1.05109e-25
1.95097e-17
-2.24258e-26
-1.07379e-25
1.95097e-17
-2.31313e-26
-1.09469e-25
1.95097e-17
-2.37777e-26
-1.11363e-25
1.95097e-17
-2.43782e-26
-1.13061e-25
1.95097e-17
-2.49274e-26
-1.14596e-25
1.95097e-17
-2.54247e-26
-1.15924e-25
1.95097e-17
-2.58759e-26
-1.17022e-25
1.95097e-17
-2.62755e-26
-1.17888e-25
1.95097e-17
-2.66181e-26
-1.18517e-25
1.95097e-17
-2.69198e-26
-1.18905e-25
1.95097e-17
-2.7167e-26
-1.19055e-25
1.95097e-17
-2.73521e-26
-1.18968e-25
1.95097e-17
-2.74729e-26
-1.1865e-25
1.95097e-17
-2.75292e-26
-1.18103e-25
1.95097e-17
-2.7525e-26
-1.17337e-25
1.95097e-17
-2.74644e-26
-1.16364e-25
1.95097e-17
-2.73478e-26
-1.15193e-25
1.95097e-17
-2.71711e-26
-1.1383e-25
1.95097e-17
-2.69341e-26
-1.12282e-25
1.95097e-17
-2.66408e-26
-1.10558e-25
1.95097e-17
-2.62946e-26
-1.08668e-25
1.95097e-17
-2.58994e-26
-1.06622e-25
1.95097e-17
-2.54586e-26
-1.04429e-25
1.95097e-17
-2.49781e-26
-1.02099e-25
1.95097e-17
-2.44606e-26
-9.96488e-26
1.95097e-17
-2.39081e-26
-9.70888e-26
1.95097e-17
-2.33219e-26
-9.44226e-26
1.95097e-17
-2.27057e-26
-9.16545e-26
1.95097e-17
-2.20609e-26
-8.87968e-26
1.95097e-17
-2.13914e-26
-8.58602e-26
1.95097e-17
-2.06993e-26
-8.28547e-26
1.95097e-17
-1.99873e-26
-7.97886e-26
1.95097e-17
-1.92584e-26
-7.6673e-26
1.95097e-17
-1.85151e-26
-7.3518e-26
1.95097e-17
-1.77564e-26
-7.03302e-26
1.95097e-17
-1.69845e-26
-6.7113e-26
1.95097e-17
-1.6201e-26
-6.38747e-26
1.95097e-17
-1.54094e-26
-6.062e-26
1.95097e-17
-1.46131e-26
-5.73558e-26
1.95097e-17
-1.38103e-26
-5.40955e-26
1.95097e-17
-1.30062e-26
-5.08296e-26
1.95097e-17
-1.21987e-26
-4.75544e-26
1.95097e-17
-1.13789e-26
-4.42608e-26
1.95097e-17
-1.05418e-26
-4.09448e-26
1.95097e-17
-9.68355e-27
-3.76038e-26
1.95097e-17
-8.8077e-27
-3.41699e-26
1.95097e-17
-7.92078e-27
-3.06077e-26
1.95097e-17
-7.02649e-27
-2.70595e-26
1.95097e-17
-6.13531e-27
-2.3154e-26
1.95097e-17
-5.27029e-27
-1.85039e-26
1.95097e-17
-4.3995e-27
-1.5547e-26
1.95097e-17
-3.53683e-27
-1.02064e-26
1.95097e-17
-2.56254e-27
-2.47582e-27
1.95097e-17
-1.21414e-27
-1.15477e-26
1.95097e-17
-3.03081e-28
1.69238e-26
1.95097e-17
2.45917e-27
-1.67013e-26
1.95097e-17
3.21432e-27
-5.14286e-27
4.74414e-27
2.13803e-26
1.88195e-17
-3.67353e-24
5.97719e-23
1.88195e-17
-7.15217e-25
-3.43746e-23
1.88195e-17
-1.08933e-24
1.20359e-23
1.88195e-17
-3.00812e-25
-1.1717e-23
1.88195e-17
-5.41559e-25
-1.95284e-24
1.88195e-17
-5.05533e-25
-1.72133e-24
1.88195e-17
-5.01295e-25
-2.88211e-24
1.88195e-17
-5.3479e-25
-1.09312e-24
1.88195e-17
-4.36471e-25
-1.04862e-24
1.88195e-17
-3.75384e-25
-9.2324e-25
1.88195e-17
-3.10744e-25
-6.19303e-25
1.88195e-17
-2.33838e-25
-5.00182e-25
1.88195e-17
-1.69989e-25
-4.0277e-25
1.88195e-17
-1.21367e-25
-2.99982e-25
1.88195e-17
-8.43e-26
-2.25212e-25
1.88195e-17
-5.7873e-26
-1.70163e-25
1.88195e-17
-3.99243e-26
-1.27374e-25
1.88195e-17
-2.82056e-26
-9.64157e-26
1.88195e-17
-2.05814e-26
-7.60115e-26
1.88195e-17
-1.58908e-26
-6.28636e-26
1.88195e-17
-1.31497e-26
-5.47027e-26
1.88195e-17
-1.15831e-26
-5.02189e-26
1.88195e-17
-1.08707e-26
-4.84362e-26
1.88195e-17
-1.06472e-26
-4.83252e-26
1.88195e-17
-1.07856e-26
-4.93637e-26
1.88195e-17
-1.10584e-26
-5.12114e-26
1.88195e-17
-1.13638e-26
-5.36542e-26
1.88195e-17
-1.16874e-26
-5.64684e-26
1.88195e-17
-1.2068e-26
-5.94725e-26
1.88195e-17
-1.24004e-26
-6.26194e-26
1.88195e-17
-1.26953e-26
-6.57918e-26
1.88195e-17
-1.28869e-26
-6.88793e-26
1.88195e-17
-1.31196e-26
-7.19498e-26
1.88195e-17
-1.35735e-26
-7.50323e-26
1.88195e-17
-1.43309e-26
-7.81094e-26
1.88195e-17
-1.52138e-26
-8.11504e-26
1.88195e-17
-1.60812e-26
-8.41078e-26
1.88195e-17
-1.68876e-26
-8.69694e-26
1.88195e-17
-1.76553e-26
-8.97118e-26
1.88195e-17
-1.83187e-26
-9.23456e-26
1.88195e-17
-1.89414e-26
-9.48488e-26
1.88195e-17
-1.9521e-26
-9.71998e-26
1.88195e-17
-2.00616e-26
-9.93888e-26
1.88195e-17
-2.05708e-26
-1.01403e-25
1.88195e-17
-2.10588e-26
-1.03231e-25
1.88195e-17
-2.15342e-26
-1.04866e-25
1.88195e-17
-2.2006e-26
-1.06303e-25
1.88195e-17
-2.24562e-26
-1.07535e-25
1.88195e-17
-2.28728e-26
-1.08553e-25
1.88195e-17
-2.32518e-26
-1.09353e-25
1.88195e-17
-2.35919e-26
-1.09934e-25
1.88195e-17
-2.3898e-26
-1.10287e-25
1.88195e-17
-2.4156e-26
-1.10415e-25
1.88195e-17
-2.4361e-26
-1.10328e-25
1.88195e-17
-2.45142e-26
-1.10027e-25
1.88195e-17
-2.4615e-26
-1.09521e-25
1.88195e-17
-2.46642e-26
-1.08814e-25
1.88195e-17
-2.46628e-26
-1.07911e-25
1.88195e-17
-2.46134e-26
-1.06821e-25
1.88195e-17
-2.45168e-26
-1.05557e-25
1.88195e-17
-2.43706e-26
-1.04123e-25
1.88195e-17
-2.41729e-26
-1.02525e-25
1.88195e-17
-2.39284e-26
-1.00775e-25
1.88195e-17
-2.36397e-26
-9.88804e-26
1.88195e-17
-2.33097e-26
-9.68515e-26
1.88195e-17
-2.29387e-26
-9.47011e-26
1.88195e-17
-2.25316e-26
-9.24343e-26
1.88195e-17
-2.20918e-26
-9.00592e-26
1.88195e-17
-2.16196e-26
-8.7587e-26
1.88195e-17
-2.11142e-26
-8.50249e-26
1.88195e-17
-2.05786e-26
-8.23812e-26
1.88195e-17
-2.00162e-26
-7.96645e-26
1.88195e-17
-1.94301e-26
-7.68829e-26
1.88195e-17
-1.88208e-26
-7.40451e-26
1.88195e-17
-1.81905e-26
-7.1159e-26
1.88195e-17
-1.7542e-26
-6.82347e-26