/*--------------------------------*- C++ -*----------------------------------*\
| =========                 |                                                 |
| \\      /  F ield         | OpenFOAM: The Open Source CFD Toolbox           |
|  \\    /   O peration     | Version:  2412                                  |
|   \\  /    A nd           | Website:  www.openfoam.com                      |
|    \\/     M anipulation  |                                                 |
\*---------------------------------------------------------------------------*/
FoamFile
{
    version     2.0;
    format      ascii;
    arch        "LSB;label=32;scalar=64";
    class       volVectorField;
    location    "0.0002";
    object      U;
}
// * * * * * * * * * * * * * * * * * * * * * * * * * * * * * * * * * * * * * //

dimensions      [0 1 -1 0 0 0 0];

internalField   nonuniform List<vector> 
14400
(
(5.48561e-06 3.21985e-12 3.32301e-12)
(5.48561e-06 -1.75871e-12 -1.85071e-12)
(5.48561e-06 3.95119e-13 3.2986e-13)
(5.48561e-06 -5.97467e-13 -6.77095e-13)
(5.48561e-06 -1.58699e-13 -2.15224e-13)
(5.48561e-06 -1.272e-13 -1.6743e-13)
(5.48561e-06 -2.15099e-13 -2.49347e-13)
(5.48561e-06 -9.59494e-14 -1.1934e-13)
(5.48561e-06 -1.02832e-13 -1.1876e-13)
(5.48561e-06 -9.38295e-14 -1.053e-13)
(5.48561e-06 -6.55499e-14 -7.416e-14)
(5.48561e-06 -5.24132e-14 -5.85825e-14)
(5.48561e-06 -4.21619e-14 -4.60877e-14)
(5.48561e-06 -3.14337e-14 -3.42288e-14)
(5.48561e-06 -2.25289e-14 -2.49002e-14)
(5.48561e-06 -1.52788e-14 -1.76068e-14)
(5.48561e-06 -1.00769e-14 -1.21736e-14)
(5.48561e-06 -6.58265e-15 -8.46165e-15)
(5.48561e-06 -4.38962e-15 -6.11125e-15)
(5.48561e-06 -3.10928e-15 -4.73275e-15)
(5.48561e-06 -2.5246e-15 -4.08647e-15)
(5.48561e-06 -2.38229e-15 -3.91309e-15)
(5.48561e-06 -2.52503e-15 -4.04588e-15)
(5.48561e-06 -2.85299e-15 -4.38179e-15)
(5.48561e-06 -3.27179e-15 -4.80411e-15)
(5.48561e-06 -3.79028e-15 -5.32879e-15)
(5.48561e-06 -4.3824e-15 -5.92235e-15)
(5.48561e-06 -5.02738e-15 -6.53661e-15)
(5.48561e-06 -5.8616e-15 -7.18937e-15)
(5.48561e-06 -6.6381e-15 -7.96234e-15)
(5.48561e-06 -7.27586e-15 -8.71345e-15)
(5.48561e-06 -7.79539e-15 -9.45761e-15)
(5.48561e-06 -8.32855e-15 -1.00565e-14)
(5.48561e-06 -8.78928e-15 -1.05162e-14)
(5.48561e-06 -9.20283e-15 -1.09064e-14)
(5.48561e-06 -9.42942e-15 -1.11357e-14)
(5.48561e-06 -9.57799e-15 -1.13557e-14)
(5.48561e-06 -9.677e-15 -1.15234e-14)
(5.48561e-06 -9.82424e-15 -1.16171e-14)
(5.48561e-06 -1.00952e-14 -1.18657e-14)
(5.48561e-06 -1.03943e-14 -1.21572e-14)
(5.48561e-06 -1.069e-14 -1.24438e-14)
(5.48561e-06 -1.09749e-14 -1.27155e-14)
(5.48561e-06 -1.12455e-14 -1.29686e-14)
(5.48561e-06 -1.1499e-14 -1.32011e-14)
(5.48561e-06 -1.17336e-14 -1.34112e-14)
(5.48561e-06 -1.19482e-14 -1.35971e-14)
(5.48561e-06 -1.21418e-14 -1.37575e-14)
(5.48561e-06 -1.23108e-14 -1.38906e-14)
(5.48561e-06 -1.24486e-14 -1.39892e-14)
(5.48561e-06 -1.25516e-14 -1.40497e-14)
(5.48561e-06 -1.26264e-14 -1.40814e-14)
(5.48561e-06 -1.26769e-14 -1.4089e-14)
(5.48561e-06 -1.27043e-14 -1.40733e-14)
(5.48561e-06 -1.27088e-14 -1.40339e-14)
(5.48561e-06 -1.26908e-14 -1.39711e-14)
(5.48561e-06 -1.26515e-14 -1.3885e-14)
(5.48561e-06 -1.25921e-14 -1.37752e-14)
(5.48561e-06 -1.25117e-14 -1.36423e-14)
(5.48561e-06 -1.24097e-14 -1.3488e-14)
(5.48561e-06 -1.22864e-14 -1.33142e-14)
(5.48561e-06 -1.21428e-14 -1.31231e-14)
(5.48561e-06 -1.19797e-14 -1.29151e-14)
(5.48561e-06 -1.17978e-14 -1.26899e-14)
(5.48561e-06 -1.15978e-14 -1.2448e-14)
(5.48561e-06 -1.13811e-14 -1.21904e-14)
(5.48561e-06 -1.11489e-14 -1.19172e-14)
(5.48561e-06 -1.09012e-14 -1.16292e-14)
(5.48561e-06 -1.06384e-14 -1.13277e-14)
(5.48561e-06 -1.03619e-14 -1.10139e-14)
(5.48561e-06 -1.00736e-14 -1.06889e-14)
(5.48561e-06 -9.77458e-15 -1.0354e-14)
(5.48561e-06 -9.46545e-15 -1.00098e-14)
(5.48561e-06 -9.14714e-15 -9.65737e-15)
(5.48561e-06 -8.82095e-15 -9.29751e-15)
(5.48561e-06 -8.48739e-15 -8.93023e-15)
(5.48561e-06 -8.14606e-15 -8.55638e-15)
(5.48561e-06 -7.79734e-15 -8.17746e-15)
(5.48561e-06 -7.44319e-15 -7.79452e-15)
(5.48561e-06 -7.08503e-15 -7.40895e-15)
(5.48561e-06 -6.7232e-15 -7.02126e-15)
(5.48561e-06 -6.3579e-15 -6.63175e-15)
(5.48561e-06 -5.98954e-15 -6.24024e-15)
(5.48561e-06 -5.61802e-15 -5.84599e-15)
(5.48561e-06 -5.24205e-15 -5.44773e-15)
(5.48561e-06 -4.8603e-15 -5.04515e-15)
(5.48561e-06 -4.47133e-15 -4.63733e-15)
(5.48561e-06 -4.07341e-15 -4.22221e-15)
(5.48561e-06 -3.6618e-15 -3.79483e-15)
(5.48561e-06 -3.23712e-15 -3.35695e-15)
(5.48561e-06 -2.78665e-15 -2.89643e-15)
(5.48561e-06 -2.28919e-15 -2.38252e-15)
(5.48561e-06 -1.83465e-15 -1.91568e-15)
(5.48561e-06 -1.32003e-15 -1.39734e-15)
(5.48561e-06 -5.88581e-16 -6.51908e-16)
(5.48561e-06 -6.66241e-16 -7.83603e-16)
(5.48561e-06 4.7394e-16 3.46092e-16)
(5.48561e-06 -4.50477e-16 -5.77731e-16)
(5.48561e-06 -9.76624e-16 -1.03498e-15)
(5.48561e-06 1.5758e-15 1.52826e-15)
(1.15068e-05 6.86195e-12 2.25687e-11)
(1.15068e-05 -2.19757e-12 -1.02769e-11)
(1.15068e-05 1.62886e-12 1.89033e-12)
(1.15068e-05 -8.46698e-13 -3.42772e-12)
(1.15068e-05 2.97649e-14 -1.35986e-12)
(1.15068e-05 1.81082e-13 -9.38645e-13)
(1.15068e-05 -4.10955e-14 -1.15466e-12)
(1.15068e-05 1.55995e-13 -6.62185e-13)
(1.15068e-05 9.6443e-14 -5.42491e-13)
(1.15068e-05 4.81277e-14 -4.42453e-13)
(1.15068e-05 5.07319e-14 -3.28284e-13)
(1.15068e-05 2.95236e-14 -2.48208e-13)
(1.15068e-05 1.49312e-14 -1.91174e-13)
(1.15068e-05 1.13078e-14 -1.47019e-13)
(1.15068e-05 1.05872e-14 -1.14323e-13)
(1.15068e-05 1.19208e-14 -8.9025e-14)
(1.15068e-05 1.41277e-14 -7.00874e-14)
(1.15068e-05 1.60632e-14 -5.69209e-14)
(1.15068e-05 1.7408e-14 -4.85959e-14)
(1.15068e-05 1.8064e-14 -4.32968e-14)
(1.15068e-05 1.78674e-14 -4.01488e-14)
(1.15068e-05 1.70861e-14 -3.84077e-14)
(1.15068e-05 1.58762e-14 -3.76123e-14)
(1.15068e-05 1.42975e-14 -3.74721e-14)
(1.15068e-05 1.25042e-14 -3.76706e-14)
(1.15068e-05 1.05809e-14 -3.81177e-14)
(1.15068e-05 8.61085e-15 -3.87653e-14)
(1.15068e-05 6.68502e-15 -3.95176e-14)
(1.15068e-05 4.87028e-15 -4.03705e-14)
(1.15068e-05 3.22436e-15 -4.14505e-14)
(1.15068e-05 1.69344e-15 -4.2606e-14)
(1.15068e-05 1.89483e-16 -4.38738e-14)
(1.15068e-05 -1.26774e-15 -4.50201e-14)
(1.15068e-05 -2.62497e-15 -4.57947e-14)
(1.15068e-05 -3.93069e-15 -4.64983e-14)
(1.15068e-05 -5.13548e-15 -4.74354e-14)
(1.15068e-05 -6.34459e-15 -4.8468e-14)
(1.15068e-05 -7.26612e-15 -4.94169e-14)
(1.15068e-05 -8.10918e-15 -5.00758e-14)
(1.15068e-05 -8.92182e-15 -5.06394e-14)
(1.15068e-05 -9.70324e-15 -5.13283e-14)
(1.15068e-05 -1.04482e-14 -5.19872e-14)
(1.15068e-05 -1.11519e-14 -5.25799e-14)
(1.15068e-05 -1.18107e-14 -5.30933e-14)
(1.15068e-05 -1.24203e-14 -5.35243e-14)
(1.15068e-05 -1.29782e-14 -5.38693e-14)
(1.15068e-05 -1.34828e-14 -5.41248e-14)
(1.15068e-05 -1.39343e-14 -5.42898e-14)
(1.15068e-05 -1.43271e-14 -5.43646e-14)
(1.15068e-05 -1.46192e-14 -5.4351e-14)
(1.15068e-05 -1.48339e-14 -5.42483e-14)
(1.15068e-05 -1.49984e-14 -5.40603e-14)
(1.15068e-05 -1.51198e-14 -5.37882e-14)
(1.15068e-05 -1.52005e-14 -5.34344e-14)
(1.15068e-05 -1.52423e-14 -5.29989e-14)
(1.15068e-05 -1.52469e-14 -5.24838e-14)
(1.15068e-05 -1.52156e-14 -5.18919e-14)
(1.15068e-05 -1.51509e-14 -5.12254e-14)
(1.15068e-05 -1.50531e-14 -5.04873e-14)
(1.15068e-05 -1.49227e-14 -4.96827e-14)
(1.15068e-05 -1.4761e-14 -4.88166e-14)
(1.15068e-05 -1.45699e-14 -4.78947e-14)
(1.15068e-05 -1.4351e-14 -4.69193e-14)
(1.15068e-05 -1.41063e-14 -4.58923e-14)
(1.15068e-05 -1.38373e-14 -4.48166e-14)
(1.15068e-05 -1.35456e-14 -4.36957e-14)
(1.15068e-05 -1.32326e-14 -4.25328e-14)
(1.15068e-05 -1.28991e-14 -4.13324e-14)
(1.15068e-05 -1.25475e-14 -4.00989e-14)
(1.15068e-05 -1.21801e-14 -3.88357e-14)
(1.15068e-05 -1.17995e-14 -3.75451e-14)
(1.15068e-05 -1.14073e-14 -3.62308e-14)
(1.15068e-05 -1.10048e-14 -3.48956e-14)
(1.15068e-05 -1.05933e-14 -3.35432e-14)
(1.15068e-05 -1.01747e-14 -3.21758e-14)
(1.15068e-05 -9.74941e-15 -3.07966e-14)
(1.15068e-05 -9.31725e-15 -2.94093e-14)
(1.15068e-05 -8.87963e-15 -2.80176e-14)
(1.15068e-05 -8.43857e-15 -2.66231e-14)
(1.15068e-05 -7.99506e-15 -2.52282e-14)
(1.15068e-05 -7.54931e-15 -2.38341e-14)
(1.15068e-05 -7.10123e-15 -2.24421e-14)
(1.15068e-05 -6.65121e-15 -2.10517e-14)
(1.15068e-05 -6.19876e-15 -1.96627e-14)
(1.15068e-05 -5.74253e-15 -1.82731e-14)
(1.15068e-05 -5.28304e-15 -1.68816e-14)
(1.15068e-05 -4.82082e-15 -1.54863e-14)
(1.15068e-05 -4.35234e-15 -1.40725e-14)
(1.15068e-05 -3.8726e-15 -1.26275e-14)
(1.15068e-05 -3.39036e-15 -1.11747e-14)
(1.15068e-05 -2.87426e-15 -9.62672e-15)
(1.15068e-05 -2.30402e-15 -7.91403e-15)
(1.15068e-05 -1.90218e-15 -6.59799e-15)
(1.15068e-05 -1.41173e-15 -4.77102e-15)
(1.15068e-05 -8.35318e-16 -2.32231e-15)
(1.15068e-05 -2.30221e-15 -3.82254e-15)
(1.15068e-05 -1.0767e-15 3.5136e-15)
(1.15068e-05 -6.01098e-15 -2.68908e-15)
(1.15068e-05 -8.08351e-15 -1.82709e-15)
(1.15068e-05 -2.8096e-15 1.65177e-14)
(1.52809e-05 6.06249e-12 2.78297e-11)
(1.52809e-05 3.40779e-14 -1.83879e-11)
(1.52809e-05 2.17517e-12 5.49132e-12)
(1.52809e-05 1.2422e-13 -5.35893e-12)
(1.52809e-05 9.37581e-13 -1.53543e-12)
(1.52809e-05 8.42934e-13 -8.71464e-13)
(1.52809e-05 5.35784e-13 -1.42479e-12)
(1.52809e-05 5.79097e-13 -7.31767e-13)
(1.52809e-05 4.13896e-13 -6.2723e-13)
(1.52809e-05 2.83356e-13 -5.413e-13)
(1.52809e-05 2.1888e-13 -3.96579e-13)
(1.52809e-05 1.48273e-13 -3.04802e-13)
(1.52809e-05 1.03001e-13 -2.35933e-13)
(1.52809e-05 7.99771e-14 -1.77046e-13)
(1.52809e-05 6.6003e-14 -1.32818e-13)
(1.52809e-05 5.81293e-14 -9.93522e-14)
(1.52809e-05 5.49743e-14 -7.41626e-14)
(1.52809e-05 5.38322e-14 -5.72048e-14)
(1.52809e-05 5.30915e-14 -4.68001e-14)
(1.52809e-05 5.19927e-14 -4.01853e-14)
(1.52809e-05 5.0286e-14 -3.60504e-14)
(1.52809e-05 4.80909e-14 -3.39707e-14)
(1.52809e-05 4.54053e-14 -3.33228e-14)
(1.52809e-05 4.23105e-14 -3.35309e-14)
(1.52809e-05 3.88913e-14 -3.42377e-14)
(1.52809e-05 3.53143e-14 -3.52496e-14)
(1.52809e-05 3.17347e-14 -3.63425e-14)
(1.52809e-05 2.82271e-14 -3.75202e-14)
(1.52809e-05 2.48327e-14 -3.88286e-14)
(1.52809e-05 2.15926e-14 -4.05001e-14)
(1.52809e-05 1.85142e-14 -4.23566e-14)
(1.52809e-05 1.55662e-14 -4.42345e-14)
(1.52809e-05 1.27331e-14 -4.61011e-14)
(1.52809e-05 1.00306e-14 -4.76406e-14)
(1.52809e-05 7.50287e-15 -4.90792e-14)
(1.52809e-05 5.42261e-15 -5.08207e-14)
(1.52809e-05 3.47676e-15 -5.27525e-14)
(1.52809e-05 1.71291e-15 -5.45032e-14)
(1.52809e-05 5.38295e-17 -5.60665e-14)
(1.52809e-05 -1.53083e-15 -5.74869e-14)
(1.52809e-05 -2.99117e-15 -5.88056e-14)
(1.52809e-05 -4.34079e-15 -6.00409e-14)
(1.52809e-05 -5.58475e-15 -6.11843e-14)
(1.52809e-05 -6.72345e-15 -6.22228e-14)
(1.52809e-05 -7.75599e-15 -6.31488e-14)
(1.52809e-05 -8.68109e-15 -6.39604e-14)
(1.52809e-05 -9.49695e-15 -6.46541e-14)
(1.52809e-05 -1.0209e-14 -6.52251e-14)
(1.52809e-05 -1.08223e-14 -6.56726e-14)
(1.52809e-05 -1.13355e-14 -6.60052e-14)
(1.52809e-05 -1.17566e-14 -6.62325e-14)
(1.52809e-05 -1.20959e-14 -6.63438e-14)
(1.52809e-05 -1.23601e-14 -6.63329e-14)
(1.52809e-05 -1.25543e-14 -6.61985e-14)
(1.52809e-05 -1.26846e-14 -6.59425e-14)
(1.52809e-05 -1.27552e-14 -6.55685e-14)
(1.52809e-05 -1.27659e-14 -6.50791e-14)
(1.52809e-05 -1.2719e-14 -6.44759e-14)
(1.52809e-05 -1.26197e-14 -6.37646e-14)
(1.52809e-05 -1.24737e-14 -6.2951e-14)
(1.52809e-05 -1.22862e-14 -6.2041e-14)
(1.52809e-05 -1.20612e-14 -6.10399e-14)
(1.52809e-05 -1.18025e-14 -5.99518e-14)
(1.52809e-05 -1.15132e-14 -5.87819e-14)
(1.52809e-05 -1.11962e-14 -5.75357e-14)
(1.52809e-05 -1.08539e-14 -5.62185e-14)
(1.52809e-05 -1.04884e-14 -5.48356e-14)
(1.52809e-05 -1.01028e-14 -5.33934e-14)
(1.52809e-05 -9.70323e-15 -5.18972e-14)
(1.52809e-05 -9.29292e-15 -5.03503e-14)
(1.52809e-05 -8.87429e-15 -4.8758e-14)
(1.52809e-05 -8.45002e-15 -4.71249e-14)
(1.52809e-05 -8.02249e-15 -4.54558e-14)
(1.52809e-05 -7.59377e-15 -4.3755e-14)
(1.52809e-05 -7.16535e-15 -4.2028e-14)
(1.52809e-05 -6.73848e-15 -4.02801e-14)
(1.52809e-05 -6.31485e-15 -3.85171e-14)
(1.52809e-05 -5.8971e-15 -3.67419e-14)
(1.52809e-05 -5.48577e-15 -3.49574e-14)
(1.52809e-05 -5.08029e-15 -3.31658e-14)
(1.52809e-05 -4.67997e-15 -3.137e-14)
(1.52809e-05 -4.28361e-15 -2.9571e-14)
(1.52809e-05 -3.89111e-15 -2.77698e-14)
(1.52809e-05 -3.50244e-15 -2.59644e-14)
(1.52809e-05 -3.11863e-15 -2.41516e-14)
(1.52809e-05 -2.74324e-15 -2.23287e-14)
(1.52809e-05 -2.37983e-15 -2.04939e-14)
(1.52809e-05 -2.02779e-15 -1.86256e-14)
(1.52809e-05 -1.68787e-15 -1.67119e-14)
(1.52809e-05 -1.38174e-15 -1.47994e-14)
(1.52809e-05 -1.09409e-15 -1.2741e-14)
(1.52809e-05 -7.96015e-16 -1.04497e-14)
(1.52809e-05 -6.98564e-16 -8.84313e-15)
(1.52809e-05 -6.41217e-16 -6.2258e-15)
(1.52809e-05 -5.08987e-16 -2.75577e-15)
(1.52809e-05 -2.0711e-15 -5.88241e-15)
(1.52809e-05 -1.66169e-15 7.16442e-15)
(1.52809e-05 -6.83393e-15 -4.51996e-15)
(1.52809e-05 -9.30689e-15 -2.34521e-15)
(1.52809e-05 -9.30903e-15 1.76358e-14)
(1.77193e-05 4.32267e-12 2.98862e-11)
(1.77192e-05 9.0345e-13 -1.73967e-11)
(1.77193e-05 1.37139e-12 6.40317e-12)
(1.77193e-05 2.69998e-13 -6.50729e-12)
(1.77193e-05 7.33256e-13 -1.23654e-12)
(1.77193e-05 5.4529e-13 -1.04622e-12)
(1.77193e-05 4.19307e-13 -1.68496e-12)
(1.77193e-05 4.38291e-13 -8.22404e-13)
(1.77193e-05 3.01593e-13 -7.36e-13)
(1.77193e-05 2.23094e-13 -6.35367e-13)
(1.77193e-05 1.74659e-13 -4.5809e-13)
(1.77193e-05 1.18117e-13 -3.64134e-13)
(1.77193e-05 8.23764e-14 -2.83521e-13)
(1.77193e-05 6.41091e-14 -2.09148e-13)
(1.77193e-05 5.31529e-14 -1.54405e-13)
(1.77193e-05 4.76883e-14 -1.16137e-13)
(1.77193e-05 4.61878e-14 -8.84561e-14)
(1.77193e-05 4.61005e-14 -6.88952e-14)
(1.77193e-05 4.59816e-14 -5.55079e-14)
(1.77193e-05 4.52394e-14 -4.688e-14)
(1.77193e-05 4.36667e-14 -4.1426e-14)
(1.77193e-05 4.13618e-14 -3.85421e-14)
(1.77193e-05 3.84566e-14 -3.73519e-14)
(1.77193e-05 3.5299e-14 -3.72451e-14)
(1.77193e-05 3.19471e-14 -3.78322e-14)
(1.77193e-05 2.84124e-14 -3.88116e-14)
(1.77193e-05 2.48615e-14 -4.00598e-14)
(1.77193e-05 2.1377e-14 -4.15008e-14)
(1.77193e-05 1.7999e-14 -4.31213e-14)
(1.77193e-05 1.47311e-14 -4.4979e-14)
(1.77193e-05 1.15946e-14 -4.69011e-14)
(1.77193e-05 8.56607e-15 -4.86842e-14)
(1.77193e-05 5.65782e-15 -5.01732e-14)
(1.77193e-05 3.26001e-15 -5.18694e-14)
(1.77193e-05 1.08726e-15 -5.37314e-14)
(1.77193e-05 -8.02664e-16 -5.56823e-14)
(1.77193e-05 -2.61991e-15 -5.77096e-14)
(1.77193e-05 -4.49206e-15 -5.97163e-14)
(1.77193e-05 -6.26674e-15 -6.1808e-14)
(1.77193e-05 -7.93231e-15 -6.3812e-14)
(1.77193e-05 -9.48899e-15 -6.5515e-14)
(1.77193e-05 -1.09335e-14 -6.70776e-14)
(1.77193e-05 -1.22623e-14 -6.85249e-14)
(1.77193e-05 -1.34737e-14 -6.98415e-14)
(1.77193e-05 -1.45662e-14 -7.10233e-14)
(1.77193e-05 -1.55347e-14 -7.20782e-14)
(1.77193e-05 -1.63707e-14 -7.30057e-14)
(1.77193e-05 -1.70837e-14 -7.37961e-14)
(1.77193e-05 -1.76817e-14 -7.44463e-14)
(1.77193e-05 -1.81724e-14 -7.49591e-14)
(1.77193e-05 -1.85673e-14 -7.53359e-14)
(1.77193e-05 -1.88728e-14 -7.55719e-14)
(1.77193e-05 -1.90926e-14 -7.56642e-14)
(1.77193e-05 -1.92313e-14 -7.56124e-14)
(1.77193e-05 -1.92933e-14 -7.54188e-14)
(1.77193e-05 -1.92827e-14 -7.50863e-14)
(1.77193e-05 -1.92008e-14 -7.46194e-14)
(1.77193e-05 -1.90504e-14 -7.40206e-14)
(1.77193e-05 -1.88364e-14 -7.32958e-14)
(1.77193e-05 -1.85671e-14 -7.24488e-14)
(1.77193e-05 -1.82483e-14 -7.14841e-14)
(1.77193e-05 -1.78852e-14 -7.04066e-14)
(1.77193e-05 -1.74829e-14 -6.92235e-14)
(1.77193e-05 -1.70433e-14 -6.794e-14)
(1.77193e-05 -1.65695e-14 -6.65623e-14)
(1.77193e-05 -1.60651e-14 -6.50992e-14)
(1.77193e-05 -1.55332e-14 -6.35576e-14)
(1.77193e-05 -1.49797e-14 -6.19439e-14)
(1.77193e-05 -1.44101e-14 -6.02627e-14)
(1.77193e-05 -1.38282e-14 -5.85181e-14)
(1.77193e-05 -1.32364e-14 -5.67161e-14)
(1.77193e-05 -1.26377e-14 -5.48624e-14)
(1.77193e-05 -1.20353e-14 -5.2963e-14)
(1.77193e-05 -1.14318e-14 -5.10235e-14)
(1.77193e-05 -1.0828e-14 -4.90497e-14)
(1.77193e-05 -1.02257e-14 -4.70484e-14)
(1.77193e-05 -9.62847e-15 -4.50253e-14)
(1.77193e-05 -9.03794e-15 -4.29829e-14)
(1.77193e-05 -8.45372e-15 -4.09251e-14)
(1.77193e-05 -7.87521e-15 -3.88554e-14)
(1.77193e-05 -7.29999e-15 -3.67784e-14)
(1.77193e-05 -6.72597e-15 -3.46976e-14)
(1.77193e-05 -6.15403e-15 -3.26148e-14)
(1.77193e-05 -5.58724e-15 -3.05265e-14)
(1.77193e-05 -5.02976e-15 -2.84274e-14)
(1.77193e-05 -4.48438e-15 -2.63068e-14)
(1.77193e-05 -3.95428e-15 -2.41616e-14)
(1.77193e-05 -3.44269e-15 -2.1967e-14)
(1.77193e-05 -2.95126e-15 -1.97056e-14)
(1.77193e-05 -2.5007e-15 -1.74394e-14)
(1.77193e-05 -2.08827e-15 -1.49796e-14)
(1.77193e-05 -1.70592e-15 -1.21709e-14)
(1.77193e-05 -1.52664e-15 -1.01701e-14)
(1.77193e-05 -1.5085e-15 -6.91075e-15)
(1.77193e-05 -1.60056e-15 -2.04253e-15)
(1.77193e-05 -2.8422e-15 -5.61445e-15)
(1.77193e-05 -3.29885e-15 9.10388e-15)
(1.77193e-05 -7.50021e-15 -1.51578e-15)
(1.77193e-05 -8.47982e-15 3.21792e-15)
(1.77193e-05 -9.7022e-15 1.76826e-14)
(1.92016e-05 2.66611e-12 3.16937e-11)
(1.92016e-05 5.5801e-13 -1.94312e-11)
(1.92016e-05 7.5537e-13 5.61373e-12)
(1.92016e-05 1.63509e-13 -6.91253e-12)
(1.92016e-05 2.69025e-13 -1.43902e-12)
(1.92016e-05 2.05518e-13 -1.37948e-12)
(1.92016e-05 2.15877e-13 -1.8806e-12)
(1.92016e-05 1.99015e-13 -9.34247e-13)
(1.92016e-05 1.20323e-13 -8.5827e-13)
(1.92016e-05 9.83634e-14 -7.27973e-13)
(1.92016e-05 7.17162e-14 -5.23442e-13)
(1.92016e-05 4.67418e-14 -4.16567e-13)
(1.92016e-05 3.09337e-14 -3.2315e-13)
(1.92016e-05 2.4931e-14 -2.38679e-13)
(1.92016e-05 2.36515e-14 -1.76939e-13)
(1.92016e-05 2.53919e-14 -1.32831e-13)
(1.92016e-05 2.83243e-14 -1.00973e-13)
(1.92016e-05 3.09821e-14 -7.84246e-14)
(1.92016e-05 3.26239e-14 -6.28424e-14)
(1.92016e-05 3.32192e-14 -5.26018e-14)
(1.92016e-05 3.27077e-14 -4.62631e-14)
(1.92016e-05 3.11472e-14 -4.26953e-14)
(1.92016e-05 2.88557e-14 -4.10105e-14)
(1.92016e-05 2.61415e-14 -4.06193e-14)
(1.92016e-05 2.32757e-14 -4.10273e-14)
(1.92016e-05 2.02416e-14 -4.19678e-14)
(1.92016e-05 1.7147e-14 -4.32695e-14)
(1.92016e-05 1.41117e-14 -4.48722e-14)
(1.92016e-05 1.11876e-14 -4.67433e-14)
(1.92016e-05 8.32522e-15 -4.87359e-14)
(1.92016e-05 5.52626e-15 -5.07062e-14)
(1.92016e-05 2.79462e-15 -5.25158e-14)
(1.92016e-05 4.5266e-16 -5.42241e-14)
(1.92016e-05 -1.54306e-15 -5.61789e-14)
(1.92016e-05 -3.44453e-15 -5.81974e-14)
(1.92016e-05 -5.47835e-15 -6.02713e-14)
(1.92016e-05 -7.3716e-15 -6.24232e-14)
(1.92016e-05 -9.19055e-15 -6.46435e-14)
(1.92016e-05 -1.0903e-14 -6.68795e-14)
(1.92016e-05 -1.24957e-14 -6.88303e-14)
(1.92016e-05 -1.40151e-14 -7.06145e-14)
(1.92016e-05 -1.54597e-14 -7.22781e-14)
(1.92016e-05 -1.67982e-14 -7.3826e-14)
(1.92016e-05 -1.79678e-14 -7.52276e-14)
(1.92016e-05 -1.8983e-14 -7.64786e-14)
(1.92016e-05 -1.98849e-14 -7.76031e-14)
(1.92016e-05 -2.06485e-14 -7.8609e-14)
(1.92016e-05 -2.12974e-14 -7.94758e-14)
(1.92016e-05 -2.18443e-14 -8.0197e-14)
(1.92016e-05 -2.22977e-14 -8.07707e-14)
(1.92016e-05 -2.26653e-14 -8.11928e-14)
(1.92016e-05 -2.29509e-14 -8.14614e-14)
(1.92016e-05 -2.31571e-14 -8.15766e-14)
(1.92016e-05 -2.32865e-14 -8.15389e-14)
(1.92016e-05 -2.33405e-14 -8.13483e-14)
(1.92016e-05 -2.33237e-14 -8.10095e-14)
(1.92016e-05 -2.3252e-14 -8.05375e-14)
(1.92016e-05 -2.31111e-14 -7.99268e-14)
(1.92016e-05 -2.29007e-14 -7.91787e-14)
(1.92016e-05 -2.26277e-14 -7.82956e-14)
(1.92016e-05 -2.22967e-14 -7.72811e-14)
(1.92016e-05 -2.19122e-14 -7.61431e-14)
(1.92016e-05 -2.14789e-14 -7.48897e-14)
(1.92016e-05 -2.10008e-14 -7.35249e-14)
(1.92016e-05 -2.04832e-14 -7.20556e-14)
(1.92016e-05 -1.99379e-14 -7.04976e-14)
(1.92016e-05 -1.93676e-14 -6.88583e-14)
(1.92016e-05 -1.87737e-14 -6.71391e-14)
(1.92016e-05 -1.81589e-14 -6.53435e-14)
(1.92016e-05 -1.75263e-14 -6.34784e-14)
(1.92016e-05 -1.68788e-14 -6.15494e-14)
(1.92016e-05 -1.62193e-14 -5.9563e-14)
(1.92016e-05 -1.55507e-14 -5.75254e-14)
(1.92016e-05 -1.48751e-14 -5.54433e-14)
(1.92016e-05 -1.41943e-14 -5.33235e-14)
(1.92016e-05 -1.35101e-14 -5.11721e-14)
(1.92016e-05 -1.2826e-14 -4.89926e-14)
(1.92016e-05 -1.21428e-14 -4.67895e-14)
(1.92016e-05 -1.14599e-14 -4.45676e-14)
(1.92016e-05 -1.07768e-14 -4.23327e-14)
(1.92016e-05 -1.00905e-14 -4.00897e-14)
(1.92016e-05 -9.40447e-15 -3.78464e-14)
(1.92016e-05 -8.72951e-15 -3.56059e-14)
(1.92016e-05 -8.06014e-15 -3.33595e-14)
(1.92016e-05 -7.39691e-15 -3.10988e-14)
(1.92016e-05 -6.71688e-15 -2.88037e-14)
(1.92016e-05 -6.03357e-15 -2.64734e-14)
(1.92016e-05 -5.36871e-15 -2.40833e-14)
(1.92016e-05 -4.7222e-15 -2.16115e-14)
(1.92016e-05 -4.10746e-15 -1.91305e-14)
(1.92016e-05 -3.53282e-15 -1.6447e-14)
(1.92016e-05 -3.00476e-15 -1.33553e-14)
(1.92016e-05 -2.62225e-15 -1.10962e-14)
(1.92016e-05 -2.41693e-15 -7.60458e-15)
(1.92016e-05 -2.49661e-15 -2.28489e-15)
(1.92016e-05 -3.15483e-15 -5.57969e-15)
(1.92016e-05 -3.4049e-15 1.01105e-14)
(1.92016e-05 -6.56411e-15 -3.21061e-15)
(1.92016e-05 -7.02025e-15 4.93645e-15)
(1.92016e-05 -7.32878e-15 1.81436e-14)
(1.99058e-05 8.85864e-13 3.22014e-11)
(1.99058e-05 2.14198e-13 -2.00473e-11)
(1.99058e-05 2.89013e-13 6.11987e-12)
(1.99058e-05 1.24473e-14 -6.99447e-12)
(1.99058e-05 -6.66924e-15 -1.6136e-12)
(1.99058e-05 -1.43749e-14 -1.44802e-12)
(1.99058e-05 -2.69838e-14 -1.93527e-12)
(1.99058e-05 -4.31976e-14 -9.9014e-13)
(1.99058e-05 -6.36481e-14 -9.18563e-13)
(1.99058e-05 -5.99434e-14 -7.74995e-13)
(1.99058e-05 -5.51318e-14 -5.59149e-13)
(1.99058e-05 -4.80052e-14 -4.4176e-13)
(1.99058e-05 -3.77189e-14 -3.415e-13)
(1.99058e-05 -2.55035e-14 -2.5367e-13)
(1.99058e-05 -1.37187e-14 -1.89339e-13)
(1.99058e-05 -3.17937e-15 -1.42205e-13)
(1.99058e-05 5.36399e-15 -1.07227e-13)
(1.99058e-05 1.16004e-14 -8.25257e-14)
(1.99058e-05 1.56554e-14 -6.59468e-14)
(1.99058e-05 1.80013e-14 -5.51978e-14)
(1.99058e-05 1.89049e-14 -4.84768e-14)
(1.99058e-05 1.85783e-14 -4.46107e-14)
(1.99058e-05 1.73499e-14 -4.26679e-14)
(1.99058e-05 1.54388e-14 -4.20396e-14)
(1.99058e-05 1.32871e-14 -4.23853e-14)
(1.99058e-05 1.09675e-14 -4.33493e-14)
(1.99058e-05 8.55096e-15 -4.47045e-14)
(1.99058e-05 6.14263e-15 -4.64279e-14)
(1.99058e-05 3.81258e-15 -4.8341e-14)
(1.99058e-05 1.50185e-15 -5.0365e-14)
(1.99058e-05 -7.57641e-16 -5.22882e-14)
(1.99058e-05 -2.91493e-15 -5.4022e-14)
(1.99058e-05 -4.81549e-15 -5.59054e-14)
(1.99058e-05 -6.73623e-15 -5.79741e-14)
(1.99058e-05 -8.57948e-15 -6.01689e-14)
(1.99058e-05 -1.0333e-14 -6.24559e-14)
(1.99058e-05 -1.19769e-14 -6.46119e-14)
(1.99058e-05 -1.35294e-14 -6.67157e-14)
(1.99058e-05 -1.49987e-14 -6.87556e-14)
(1.99058e-05 -1.63939e-14 -7.06771e-14)
(1.99058e-05 -1.7711e-14 -7.24424e-14)
(1.99058e-05 -1.8963e-14 -7.40521e-14)
(1.99058e-05 -2.01339e-14 -7.55502e-14)
(1.99058e-05 -2.11965e-14 -7.69365e-14)
(1.99058e-05 -2.21467e-14 -7.81993e-14)
(1.99058e-05 -2.2994e-14 -7.93519e-14)
(1.99058e-05 -2.37424e-14 -8.0487e-14)
(1.99058e-05 -2.43812e-14 -8.14866e-14)
(1.99058e-05 -2.49276e-14 -8.23268e-14)
(1.99058e-05 -2.53878e-14 -8.30041e-14)
(1.99058e-05 -2.5767e-14 -8.35145e-14)
(1.99058e-05 -2.60704e-14 -8.38571e-14)
(1.99058e-05 -2.62999e-14 -8.40327e-14)
(1.99058e-05 -2.64564e-14 -8.40429e-14)
(1.99058e-05 -2.65416e-14 -8.38885e-14)
(1.99058e-05 -2.65582e-14 -8.35717e-14)
(1.99058e-05 -2.65131e-14 -8.31017e-14)
(1.99058e-05 -2.64015e-14 -8.24858e-14)
(1.99058e-05 -2.62216e-14 -8.17276e-14)
(1.99058e-05 -2.59755e-14 -8.08291e-14)
(1.99058e-05 -2.56673e-14 -7.97944e-14)
(1.99058e-05 -2.5301e-14 -7.86308e-14)
(1.99058e-05 -2.488e-14 -7.73455e-14)
(1.99058e-05 -2.44104e-14 -7.59455e-14)
(1.99058e-05 -2.38982e-14 -7.4437e-14)
(1.99058e-05 -2.3351e-14 -7.28297e-14)
(1.99058e-05 -2.27727e-14 -7.11332e-14)
(1.99058e-05 -2.21647e-14 -6.93526e-14)
(1.99058e-05 -2.15289e-14 -6.7491e-14)
(1.99058e-05 -2.08675e-14 -6.55552e-14)
(1.99058e-05 -2.01845e-14 -6.35528e-14)
(1.99058e-05 -1.94831e-14 -6.14906e-14)
(1.99058e-05 -1.87656e-14 -5.93754e-14)
(1.99058e-05 -1.80347e-14 -5.72139e-14)
(1.99058e-05 -1.72928e-14 -5.50142e-14)
(1.99058e-05 -1.65404e-14 -5.27819e-14)
(1.99058e-05 -1.57801e-14 -5.05208e-14)
(1.99058e-05 -1.50139e-14 -4.82353e-14)
(1.99058e-05 -1.42432e-14 -4.59311e-14)
(1.99058e-05 -1.34685e-14 -4.36148e-14)
(1.99058e-05 -1.26917e-14 -4.13001e-14)
(1.99058e-05 -1.19113e-14 -3.89982e-14)
(1.99058e-05 -1.11319e-14 -3.66936e-14)
(1.99058e-05 -1.03515e-14 -3.43807e-14)
(1.99058e-05 -9.56817e-15 -3.20534e-14)
(1.99058e-05 -8.77578e-15 -2.9708e-14)
(1.99058e-05 -7.97905e-15 -2.73352e-14)
(1.99058e-05 -7.18194e-15 -2.4877e-14)
(1.99058e-05 -6.3921e-15 -2.23207e-14)
(1.99058e-05 -5.61662e-15 -1.97407e-14)
(1.99058e-05 -4.86777e-15 -1.69464e-14)
(1.99058e-05 -4.15545e-15 -1.37077e-14)
(1.99058e-05 -3.52027e-15 -1.12521e-14)
(1.99058e-05 -2.97981e-15 -7.45993e-15)
(1.99058e-05 -2.62355e-15 -1.92305e-15)
(1.99058e-05 -2.5054e-15 -5.03846e-15)
(1.99058e-05 -2.18676e-15 1.22731e-14)
(1.99058e-05 -2.91833e-15 -2.08855e-15)
(1.99058e-05 -3.01601e-15 7.0819e-15)
(1.99058e-05 -2.76531e-15 1.83481e-14)
(1.99058e-05 -1.04967e-12 3.22176e-11)
(1.99058e-05 -4.82228e-13 -2.00236e-11)
(1.99058e-05 -4.86626e-13 6.18096e-12)
(1.99058e-05 -2.39108e-13 -6.9669e-12)
(1.99058e-05 -2.60976e-13 -1.58094e-12)
(1.99058e-05 -2.78222e-13 -1.41346e-12)
(1.99058e-05 -2.99499e-13 -1.91081e-12)
(1.99058e-05 -2.98003e-13 -9.76295e-13)
(1.99058e-05 -2.61905e-13 -9.09474e-13)
(1.99058e-05 -2.33799e-13 -7.68537e-13)
(1.99058e-05 -1.93221e-13 -5.55154e-13)
(1.99058e-05 -1.50488e-13 -4.39007e-13)
(1.99058e-05 -1.11817e-13 -3.39408e-13)
(1.99058e-05 -8.00207e-14 -2.52217e-13)
(1.99058e-05 -5.42019e-14 -1.88384e-13)
(1.99058e-05 -3.43477e-14 -1.41473e-13)
(1.99058e-05 -1.99468e-14 -1.0649e-13)
(1.99058e-05 -9.86351e-15 -8.14866e-14)
(1.99058e-05 -3.24343e-15 -6.51502e-14)
(1.99058e-05 8.10705e-16 -5.46851e-14)
(1.99058e-05 3.04523e-15 -4.80293e-14)
(1.99058e-05 3.93349e-15 -4.41478e-14)
(1.99058e-05 3.95685e-15 -4.21732e-14)
(1.99058e-05 3.26199e-15 -4.14862e-14)
(1.99058e-05 2.00156e-15 -4.17563e-14)
(1.99058e-05 5.15606e-16 -4.26449e-14)
(1.99058e-05 -1.07773e-15 -4.39212e-14)
(1.99058e-05 -2.72534e-15 -4.55198e-14)
(1.99058e-05 -4.34781e-15 -4.71458e-14)
(1.99058e-05 -5.9537e-15 -4.91639e-14)
(1.99058e-05 -7.47054e-15 -5.11161e-14)
(1.99058e-05 -8.90852e-15 -5.28298e-14)
(1.99058e-05 -1.05461e-14 -5.46448e-14)
(1.99058e-05 -1.22797e-14 -5.65892e-14)
(1.99058e-05 -1.3626e-14 -5.86323e-14)
(1.99058e-05 -1.49907e-14 -6.08013e-14)
(1.99058e-05 -1.62959e-14 -6.29541e-14)
(1.99058e-05 -1.75239e-14 -6.50482e-14)
(1.99058e-05 -1.86873e-14 -6.70613e-14)
(1.99058e-05 -1.9789e-14 -6.89819e-14)
(1.99058e-05 -2.08706e-14 -7.07637e-14)
(1.99058e-05 -2.19371e-14 -7.23741e-14)
(1.99058e-05 -2.28988e-14 -7.38714e-14)
(1.99058e-05 -2.3762e-14 -7.52567e-14)
(1.99058e-05 -2.45414e-14 -7.6521e-14)
(1.99058e-05 -2.52493e-14 -7.76761e-14)
(1.99058e-05 -2.58595e-14 -7.87985e-14)
(1.99058e-05 -2.63895e-14 -7.98164e-14)
(1.99058e-05 -2.68633e-14 -8.06784e-14)
(1.99058e-05 -2.72769e-14 -8.13771e-14)
(1.99058e-05 -2.76269e-14 -8.19093e-14)
(1.99058e-05 -2.79212e-14 -8.22714e-14)
(1.99058e-05 -2.81548e-14 -8.24647e-14)
(1.99058e-05 -2.83238e-14 -8.24915e-14)
(1.99058e-05 -2.84267e-14 -8.23546e-14)
(1.99058e-05 -2.84638e-14 -8.20557e-14)
(1.99058e-05 -2.84398e-14 -8.1601e-14)
(1.99058e-05 -2.83557e-14 -8.09982e-14)
(1.99058e-05 -2.82098e-14 -8.0255e-14)
(1.99058e-05 -2.7999e-14 -7.93742e-14)
(1.99058e-05 -2.7725e-14 -7.83605e-14)
(1.99058e-05 -2.73919e-14 -7.72192e-14)
(1.99058e-05 -2.70042e-14 -7.5958e-14)
(1.99058e-05 -2.6566e-14 -7.45837e-14)
(1.99058e-05 -2.60817e-14 -7.31027e-14)
(1.99058e-05 -2.55585e-14 -7.15223e-14)
(1.99058e-05 -2.4999e-14 -6.98532e-14)
(1.99058e-05 -2.44041e-14 -6.81011e-14)
(1.99058e-05 -2.37766e-14 -6.62706e-14)
(1.99058e-05 -2.31193e-14 -6.43665e-14)
(1.99058e-05 -2.24351e-14 -6.23962e-14)
(1.99058e-05 -2.17271e-14 -6.03668e-14)
(1.99058e-05 -2.09978e-14 -5.82858e-14)
(1.99058e-05 -2.02502e-14 -5.61589e-14)
(1.99058e-05 -1.9487e-14 -5.39942e-14)
(1.99058e-05 -1.87094e-14 -5.17988e-14)
(1.99058e-05 -1.79175e-14 -4.95774e-14)
(1.99058e-05 -1.71143e-14 -4.73325e-14)
(1.99058e-05 -1.6302e-14 -4.50699e-14)
(1.99058e-05 -1.54831e-14 -4.27937e-14)
(1.99058e-05 -1.46608e-14 -4.05139e-14)
(1.99058e-05 -1.38253e-14 -3.8254e-14)
(1.99058e-05 -1.29876e-14 -3.59924e-14)
(1.99058e-05 -1.21455e-14 -3.37224e-14)
(1.99058e-05 -1.12931e-14 -3.1439e-14)
(1.99058e-05 -1.04253e-14 -2.91373e-14)
(1.99058e-05 -9.54078e-15 -2.68096e-14)
(1.99058e-05 -8.65021e-15 -2.43992e-14)
(1.99058e-05 -7.75736e-15 -2.18891e-14)
(1.99058e-05 -6.86455e-15 -1.93531e-14)
(1.99058e-05 -5.98358e-15 -1.66061e-14)
(1.99058e-05 -5.13306e-15 -1.3418e-14)
(1.99058e-05 -4.31274e-15 -1.1006e-14)
(1.99058e-05 -3.5292e-15 -7.24722e-15)
(1.99058e-05 -2.69406e-15 -1.74901e-15)
(1.99058e-05 -1.73586e-15 -4.88923e-15)
(1.99058e-05 -1.03525e-15 1.23633e-14)
(1.99058e-05 6.48732e-16 -1.87094e-15)
(1.99058e-05 1.22139e-15 6.74091e-15)
(1.99058e-05 2.43628e-15 1.87885e-14)
(1.92016e-05 -2.90506e-12 3.17453e-11)
(1.92016e-05 -7.80428e-13 -1.93703e-11)
(1.92016e-05 -9.51376e-13 5.74154e-12)
(1.92016e-05 -3.46748e-13 -6.80822e-12)
(1.92016e-05 -4.679e-13 -1.34962e-12)
(1.92016e-05 -4.57299e-13 -1.27439e-12)
(1.92016e-05 -4.90009e-13 -1.80958e-12)
(1.92016e-05 -4.91652e-13 -8.97283e-13)
(1.92016e-05 -4.02538e-13 -8.3804e-13)
(1.92016e-05 -3.57069e-13 -7.16466e-13)
(1.92016e-05 -2.94767e-13 -5.1667e-13)
(1.92016e-05 -2.25305e-13 -4.08661e-13)
(1.92016e-05 -1.65257e-13 -3.17357e-13)
(1.92016e-05 -1.17933e-13 -2.35732e-13)
(1.92016e-05 -8.18125e-14 -1.75967e-13)
(1.92016e-05 -5.55188e-14 -1.31854e-13)
(1.92016e-05 -3.73902e-14 -9.91084e-14)
(1.92016e-05 -2.53006e-14 -7.58855e-14)
(1.92016e-05 -1.7251e-14 -6.04688e-14)
(1.92016e-05 -1.22709e-14 -5.0489e-14)
(1.92016e-05 -9.34915e-15 -4.41539e-14)
(1.92016e-05 -7.6239e-15 -4.04716e-14)
(1.92016e-05 -6.90469e-15 -3.88044e-14)
(1.92016e-05 -6.84096e-15 -3.83105e-14)
(1.92016e-05 -7.29988e-15 -3.85824e-14)
(1.92016e-05 -7.95546e-15 -3.93772e-14)
(1.92016e-05 -8.67886e-15 -4.05448e-14)
(1.92016e-05 -9.45592e-15 -4.19862e-14)
(1.92016e-05 -1.03315e-14 -4.36383e-14)
(1.92016e-05 -1.112e-14 -4.55004e-14)
(1.92016e-05 -1.18392e-14 -4.7365e-14)
(1.92016e-05 -1.24474e-14 -4.89986e-14)
(1.92016e-05 -1.32169e-14 -5.05271e-14)
(1.92016e-05 -1.42185e-14 -5.21502e-14)
(1.92016e-05 -1.53176e-14 -5.4061e-14)
(1.92016e-05 -1.65317e-14 -5.60745e-14)