# Region type : patch inlet
# Faces       : 405
# Area        : 3.889620e-10
# Scale factor: 1.000000e+00
# Time        	sum(phi)
0             
50            	-5.634596e-14
100           	-5.898411e-14
150           	-5.910821e-14
200           	-5.911409e-14
250           	-5.911433e-14
300           	-5.911434e-14
