/*--------------------------------*- C++ -*----------------------------------*\
| =========                 |                                                 |
| \\      /  F ield         | OpenFOAM: The Open Source CFD Toolbox           |
|  \\    /   O peration     | Version:  2412                                  |
|   \\  /    A nd           | Website:  www.openfoam.com                      |
|    \\/     M anipulation  |                                                 |
\*---------------------------------------------------------------------------*/
FoamFile
{
    version     2.0;
    format      ascii;
    arch        "LSB;label=32;scalar=64";
    class       volScalarField;
    location    "1e-05";
    object      p;
}
// * * * * * * * * * * * * * * * * * * * * * * * * * * * * * * * * * * * * * //

dimensions      [0 2 -2 0 0 0 0];

internalField   nonuniform List<scalar> 
96800
(
0.000985429
0.000986046
0.0009227
0.000968816
0.000874962
0.000913097
0.000861917
0.000852497
0.00083087
0.000810932
0.00079106
0.00077111
0.000751189
0.000731239
0.000711305
0.000691356
0.000671412
0.000651457
0.000631502
0.000611536
0.000591567
0.000571586
0.000551603
0.000531605
0.000511604
0.000491589
0.000471575
0.000451541
0.000431511
0.000411457
0.000391418
0.000371345
0.000351298
0.000331205
0.000311157
0.000291048
0.000271004
0.000250879
0.000230845
0.000210707
0.000190682
0.000170539
0.000150516
0.000130396
0.000110309
9.03239e-05
7.00647e-05
5.0252e-05
2.99436e-05
1.00981e-05
0.000985514
0.000986447
0.000922185
0.000969287
0.000874723
0.000913162
0.000861919
0.00085249
0.000830873
0.000810933
0.00079106
0.00077111
0.000751189
0.000731239
0.000711305
0.000691356
0.000671412
0.000651456
0.000631502
0.000611536
0.000591567
0.000571586
0.000551603
0.000531605
0.000511604
0.000491589
0.000471574
0.00045154
0.000431511
0.000411457
0.000391418
0.000371345
0.000351297
0.000331205
0.000311157
0.000291048
0.000271004
0.000250879
0.000230845
0.000210706
0.000190683
0.000170538
0.000150516
0.000130395
0.000110309
9.03237e-05
7.00634e-05
5.02534e-05
2.9941e-05
1.01008e-05
0.000985782
0.000986443
0.000922047
0.000969613
0.000874338
0.000913451
0.000861771
0.000852532
0.000830867
0.000810932
0.00079106
0.00077111
0.000751189
0.000731239
0.000711305
0.000691356
0.000671412
0.000651457
0.000631502
0.000611536
0.000591567
0.000571586
0.000551603
0.000531605
0.000511604
0.000491589
0.000471574
0.00045154
0.000431511
0.000411457
0.000391418
0.000371345
0.000351298
0.000331205
0.000311157
0.000291048
0.000271004
0.000250879
0.000230845
0.000210706
0.000190683
0.000170539
0.000150517
0.000130396
0.000110309
9.03254e-05
7.00628e-05
5.0255e-05
2.99412e-05
1.00994e-05
0.000986022
0.000986225
0.000922092
0.000969779
0.000874009
0.000913771
0.000861586
0.000852591
0.000830857
0.000810932
0.00079106
0.00077111
0.000751189
0.000731239
0.000711305
0.000691356
0.000671412
0.000651457
0.000631502
0.000611536
0.000591567
0.000571586
0.000551603
0.000531605
0.000511604
0.000491589
0.000471575
0.000451541
0.000431511
0.000411457
0.000391418
0.000371345
0.000351298
0.000331205
0.000311157
0.000291048
0.000271004
0.000250879
0.000230845
0.000210706
0.000190683
0.000170539
0.000150517
0.000130397
0.000110308
9.03271e-05
7.00624e-05
5.02559e-05
2.9942e-05
1.00973e-05
0.000986122
0.000985986
0.000922232
0.000969828
0.000873759
0.000914072
0.000861397
0.000852655
0.000830846
0.000810931
0.00079106
0.00077111
0.000751189
0.000731239
0.000711305
0.000691356
0.000671412
0.000651457
0.000631502
0.000611536
0.000591567
0.000571586
0.000551603
0.000531605
0.000511604
0.000491589
0.000471575
0.000451541
0.000431511
0.000411457
0.000391418
0.000371345
0.000351298
0.000331205
0.000311157
0.000291048
0.000271004
0.000250879
0.000230845
0.000210706
0.000190683
0.000170539
0.000150517
0.000130397
0.000110308
9.03285e-05
7.00619e-05
5.02562e-05
2.99426e-05
1.00954e-05
0.000986171
0.00098578
0.000922409
0.00096981
0.000873567
0.000914346
0.000861216
0.000852719
0.000830835
0.00081093
0.00079106
0.00077111
0.000751189
0.000731239
0.000711305
0.000691356
0.000671412
0.000651457
0.000631502
0.000611536
0.000591567
0.000571586
0.000551603
0.000531606
0.000511604
0.000491589
0.000471575
0.000451541
0.000431511
0.000411457
0.000391418
0.000371345
0.000351298
0.000331205
0.000311157
0.000291048
0.000271004
0.000250879
0.000230845
0.000210706
0.000190683
0.000170539
0.000150517
0.000130398
0.000110307
9.03296e-05
7.00614e-05
5.02563e-05
2.99432e-05
1.00938e-05
0.000986196
0.000985597
0.000922595
0.000969756
0.00087341
0.000914597
0.000861045
0.000852783
0.000830825
0.00081093
0.00079106
0.00077111
0.000751189
0.000731239
0.000711305
0.000691356
0.000671412
0.000651457
0.000631502
0.000611536
0.000591567
0.000571586
0.000551603
0.000531606
0.000511605
0.000491589
0.000471575
0.000451541
0.000431511
0.000411457
0.000391418
0.000371345
0.000351298
0.000331205
0.000311157
0.000291048
0.000271004
0.000250879
0.000230845
0.000210706
0.000190683
0.00017054
0.000150517
0.000130399
0.000110307
9.03304e-05
7.0061e-05
5.02562e-05
2.99435e-05
1.00925e-05
0.000986199
0.000985428
0.000922781
0.000969685
0.000873273
0.000914829
0.000860883
0.000852846
0.000830815
0.000810929
0.00079106
0.00077111
0.000751189
0.000731239
0.000711305
0.000691357
0.000671412
0.000651457
0.000631502
0.000611536
0.000591567
0.000571586
0.000551603
0.000531606
0.000511605
0.000491589
0.000471575
0.000451541
0.000431511
0.000411457
0.000391418
0.000371345
0.000351298
0.000331205
0.000311157
0.000291048
0.000271004
0.000250879
0.000230845
0.000210706
0.000190683
0.00017054
0.000150517
0.000130399
0.000110306
9.03312e-05
7.00606e-05
5.0256e-05
2.99438e-05
1.00914e-05
0.00098618
0.000985268
0.000922963
0.000969605
0.000873151
0.000915045
0.000860731
0.000852907
0.000830806
0.000810929
0.00079106
0.00077111
0.000751189
0.000731239
0.000711305
0.000691357
0.000671412
0.000651457
0.000631502
0.000611537
0.000591567
0.000571586
0.000551604
0.000531606
0.000511605
0.000491589
0.000471575
0.000451541
0.000431511
0.000411457
0.000391418
0.000371345
0.000351298
0.000331205
0.000311157
0.000291048
0.000271004
0.000250879
0.000230845
0.000210706
0.000190683
0.00017054
0.000150516
0.000130399
0.000110306
9.03318e-05
7.00602e-05
5.02557e-05
2.9944e-05
1.00904e-05
0.000986143
0.000985117
0.000923139
0.000969523
0.00087304
0.000915246
0.000860588
0.000852965
0.000830798
0.000810929
0.00079106
0.00077111
0.000751189
0.000731239
0.000711305
0.000691357
0.000671412
0.000651457
0.000631502
0.000611537
0.000591567
0.000571586
0.000551604
0.000531606
0.000511605
0.000491589
0.000471575
0.000451541
0.000431511
0.000411457
0.000391418
0.000371345
0.000351297
0.000331204
0.000311157
0.000291048
0.000271004
0.000250879
0.000230845
0.000210706
0.000190683
0.00017054
0.000150516
0.0001304
0.000110305
9.03322e-05
7.00598e-05
5.02554e-05
2.99442e-05
1.00896e-05
0.000986098
0.000984978
0.000923305
0.000969442
0.000872938
0.000915431
0.000860453
0.000853019
0.00083079
0.000810928
0.00079106
0.00077111
0.000751189
0.000731239
0.000711305
0.000691357
0.000671412
0.000651457
0.000631503
0.000611537
0.000591567
0.000571586
0.000551604
0.000531606
0.000511605
0.000491589
0.000471575
0.000451541
0.000431511
0.000411457
0.000391418
0.000371345
0.000351297
0.000331204
0.000311157
0.000291048
0.000271004
0.000250879
0.000230845
0.000210706
0.000190683
0.00017054
0.000150516
0.0001304
0.000110305
9.03326e-05
7.00594e-05
5.0255e-05
2.99442e-05
1.00888e-05
0.00098605
0.000984852
0.000923459
0.000969365
0.000872846
0.000915602
0.000860328
0.00085307
0.000830783
0.000810928
0.000791061
0.00077111
0.000751189
0.000731239
0.000711305
0.000691357
0.000671412
0.000651457
0.000631503
0.000611537
0.000591567
0.000571586
0.000551604
0.000531606
0.000511605
0.000491589
0.000471575
0.000451541
0.000431511
0.000411457
0.000391418
0.000371345
0.000351297
0.000331204
0.000311157
0.000291048
0.000271004
0.000250879
0.000230845
0.000210706
0.000190683
0.00017054
0.000150516
0.0001304
0.000110304
9.03329e-05
7.0059e-05
5.02546e-05
2.99443e-05
1.00881e-05
0.000986005
0.000984737
0.0009236
0.000969293
0.000872763
0.000915758
0.000860212
0.000853116
0.000830776
0.000810928
0.000791061
0.00077111
0.000751189
0.000731239
0.000711305
0.000691357
0.000671412
0.000651458
0.000631503
0.000611537
0.000591567
0.000571586
0.000551604
0.000531606
0.000511604
0.000491589
0.000471575
0.000451541
0.000431511
0.000411457
0.000391418
0.000371345
0.000351297
0.000331204
0.000311157
0.000291047
0.000271004
0.000250879
0.000230845
0.000210706
0.000190682
0.00017054
0.000150516
0.0001304
0.000110304
9.03331e-05
7.00587e-05
5.02541e-05
2.99443e-05
1.00875e-05
0.000985964
0.000984634
0.000923727
0.000969226
0.000872688
0.0009159
0.000860106
0.000853158
0.00083077
0.000810928
0.000791061
0.00077111
0.000751189
0.000731239
0.000711305
0.000691357
0.000671412
0.000651458
0.000631503
0.000611537
0.000591567
0.000571586
0.000551603
0.000531606
0.000511604
0.000491589
0.000471574
0.000451541
0.000431511
0.000411457
0.000391418
0.000371345
0.000351297
0.000331204
0.000311156
0.000291047
0.000271004
0.000250879
0.000230845
0.000210706
0.000190682
0.00017054
0.000150515
0.000130401
0.000110303
9.03332e-05
7.00585e-05
5.02537e-05
2.99443e-05
1.0087e-05
0.000985929
0.000984543
0.00092384
0.000969166
0.000872622
0.000916027
0.00086001
0.000853195
0.000830765
0.000810927
0.000791061
0.00077111
0.000751189
0.000731239
0.000711305
0.000691357
0.000671412
0.000651458
0.000631502
0.000611537
0.000591567
0.000571586
0.000551603
0.000531606
0.000511604
0.000491589
0.000471574
0.000451541
0.00043151
0.000411457
0.000391418
0.000371345
0.000351297
0.000331204
0.000311156
0.000291047
0.000271004
0.000250879
0.000230844
0.000210706
0.000190682
0.00017054
0.000150515
0.000130401
0.000110303
9.03333e-05
7.00583e-05
5.02533e-05
2.99443e-05
1.00865e-05
0.000985899
0.000984463
0.000923937
0.000969112
0.000872564
0.00091614
0.000859925
0.000853228
0.00083076
0.000810927
0.000791061
0.00077111
0.000751189
0.000731239
0.000711305
0.000691357
0.000671412
0.000651458
0.000631502
0.000611537
0.000591567
0.000571586
0.000551603
0.000531606
0.000511604
0.000491589
0.000471574
0.000451541
0.00043151
0.000411457
0.000391417
0.000371345
0.000351297
0.000331204
0.000311156
0.000291047
0.000271004
0.000250879
0.000230844
0.000210706
0.000190682
0.00017054
0.000150515
0.000130401
0.000110303
9.03333e-05
7.00581e-05
5.02528e-05
2.99443e-05
1.00861e-05
0.000985873
0.000984395
0.000924021
0.000969064
0.000872514
0.000916239
0.00085985
0.000853257
0.000830756
0.000810927
0.000791061
0.00077111
0.000751189
0.000731239
0.000711305
0.000691357
0.000671412
0.000651458
0.000631502
0.000611537
0.000591567
0.000571586
0.000551603
0.000531606
0.000511604
0.000491589
0.000471574
0.000451541
0.00043151
0.000411457
0.000391417
0.000371345
0.000351297
0.000331204
0.000311156
0.000291047
0.000271004
0.000250879
0.000230844
0.000210706
0.000190682
0.00017054
0.000150515
0.000130401
0.000110302
9.03333e-05
7.0058e-05
5.02524e-05
2.99443e-05
1.00858e-05
0.000985848
0.000984338
0.000924091
0.000969023
0.000872474
0.000916323
0.000859787
0.00085328
0.000830753
0.000810927
0.000791062
0.00077111
0.000751189
0.000731239
0.000711305
0.000691357
0.000671412
0.000651458
0.000631502
0.000611537
0.000591567
0.000571586
0.000551603
0.000531606
0.000511604
0.000491589
0.000471574
0.000451541
0.00043151
0.000411457
0.000391417
0.000371344
0.000351296
0.000331204
0.000311156
0.000291047
0.000271004
0.000250879
0.000230844
0.000210706
0.000190682
0.00017054
0.000150515
0.000130401
0.000110302
9.03332e-05
7.0058e-05
5.02519e-05
2.99444e-05
1.00856e-05
0.000985822
0.000984294
0.000924146
0.000968987
0.000872442
0.00091639
0.000859734
0.0008533
0.000830749
0.000810927
0.000791062
0.00077111
0.000751189
0.000731239
0.000711305
0.000691357
0.000671412
0.000651458
0.000631502
0.000611537
0.000591567
0.000571586
0.000551603
0.000531606
0.000511603
0.000491589
0.000471574
0.000451541
0.00043151
0.000411456
0.000391417
0.000371344
0.000351296
0.000331204
0.000311156
0.000291047
0.000271004
0.000250879
0.000230844
0.000210706
0.000190682
0.00017054
0.000150515
0.000130401
0.000110302
9.03331e-05
7.0058e-05
5.02515e-05
2.99445e-05
1.00854e-05
0.000985797
0.000984261
0.000924188
0.000968959
0.000872418
0.000916441
0.000859693
0.000853315
0.000830747
0.000810926
0.000791062
0.00077111
0.000751189
0.000731239
0.000711305
0.000691357
0.000671412
0.000651457
0.000631502
0.000611537
0.000591567
0.000571586
0.000551603
0.000531606
0.000511603
0.000491589
0.000471573
0.00045154
0.000431509
0.000411456
0.000391417
0.000371344
0.000351296
0.000331204
0.000311156
0.000291047
0.000271004
0.000250879
0.000230844
0.000210706
0.000190682
0.00017054
0.000150515
0.000130401
0.000110302
9.03329e-05
7.00581e-05
5.02511e-05
2.99446e-05
1.00853e-05
0.000985775
0.000984241
0.000924218
0.000968937
0.000872404
0.000916475
0.000859665
0.000853325
0.000830745
0.000810926
0.000791062
0.00077111
0.000751189
0.000731239
0.000711305
0.000691357
0.000671412
0.000651457
0.000631502
0.000611537
0.000591566
0.000571586
0.000551602
0.000531606
0.000511603
0.000491588
0.000471573
0.00045154
0.000431509
0.000411456
0.000391416
0.000371344
0.000351296
0.000331204
0.000311156
0.000291047
0.000271004
0.000250879
0.000230844
0.000210706
0.000190682
0.00017054
0.000150515
0.000130401
0.000110302
9.03326e-05
7.00582e-05
5.02507e-05
2.99447e-05
1.00853e-05
0.000985758
0.000984232
0.000924237
0.000968922
0.000872399
0.000916493
0.000859648
0.000853331
0.000830744
0.000810926
0.000791061
0.00077111
0.000751188
0.000731239
0.000711305
0.000691357
0.000671411
0.000651457
0.000631501
0.000611537
0.000591566
0.000571586
0.000551602
0.000531606
0.000511603
0.000491588
0.000471573
0.00045154
0.000431509
0.000411456
0.000391416
0.000371344
0.000351296
0.000331204
0.000311155
0.000291047
0.000271003
0.000250879
0.000230844
0.000210706
0.000190682
0.00017054
0.000150515
0.0001304
0.000110302
9.03323e-05
7.00583e-05
5.02504e-05
2.99448e-05
1.00854e-05
0.000985746
0.000984233
0.000924241
0.000968914
0.000872402
0.000916495
0.000859644
0.000853333
0.000830743
0.000810926
0.000791061
0.00077111
0.000751188
0.000731239
0.000711305
0.000691357
0.000671411
0.000651457
0.000631501
0.000611537
0.000591566
0.000571586
0.000551602
0.000531606
0.000511602
0.000491588
0.000471572
0.00045154
0.000431509
0.000411456
0.000391416
0.000371344
0.000351295
0.000331204
0.000311155
0.000291047
0.000271003
0.000250879
0.000230844
0.000210706
0.000190682
0.00017054
0.000150515
0.0001304
0.000110302
9.0332e-05
7.00585e-05
5.025e-05
2.99448e-05
1.00856e-05
0.00098574
0.000984247
0.000924232
0.000968913
0.000872414
0.000916481
0.000859651
0.00085333
0.000830743
0.000810926
0.000791061
0.00077111
0.000751188
0.000731239
0.000711305
0.000691357
0.000671411
0.000651457
0.000631501
0.000611537
0.000591566
0.000571586
0.000551601
0.000531606
0.000511602
0.000491588
0.000471572
0.00045154
0.000431508
0.000411456
0.000391416
0.000371344
0.000351295
0.000331204
0.000311155
0.000291047
0.000271003
0.000250879
0.000230844
0.000210706
0.000190682
0.00017054
0.000150515
0.0001304
0.000110302
9.03317e-05
7.00588e-05
5.02497e-05
2.99448e-05
1.00858e-05
0.00098574
0.000984274
0.00092421
0.000968918
0.000872435
0.000916452
0.00085967
0.000853323
0.000830744
0.000810926
0.000791061
0.00077111
0.000751188
0.000731239
0.000711305
0.000691357
0.000671411
0.000651457
0.000631501
0.000611537
0.000591565
0.000571586
0.000551601
0.000531605
0.000511602
0.000491588
0.000471572
0.00045154
0.000431508
0.000411456
0.000391415
0.000371344
0.000351295
0.000331204
0.000311155
0.000291047
0.000271003
0.000250879
0.000230844
0.000210706
0.000190682
0.00017054
0.000150515
0.0001304
0.000110302
9.03312e-05
7.00591e-05
5.02494e-05
2.99448e-05
1.00862e-05
0.000985745
0.000984314
0.000924174
0.000968931
0.000872464
0.000916406
0.000859701
0.000853311
0.000830745
0.000810926
0.000791061
0.00077111
0.000751188
0.000731239
0.000711304
0.000691357
0.000671411
0.000651457
0.0006315
0.000611537
0.000591565
0.000571586
0.000551601
0.000531605
0.000511601
0.000491588
0.000471571
0.00045154
0.000431508
0.000411456
0.000391415
0.000371344
0.000351295
0.000331204
0.000311155
0.000291047
0.000271003
0.000250879
0.000230844
0.000210706
0.000190682
0.00017054
0.000150515
0.0001304
0.000110303
9.03308e-05
7.00594e-05
5.02492e-05
2.99447e-05
1.00866e-05
0.000985752
0.000984365
0.000924126
0.00096895
0.000872503
0.000916343
0.000859744
0.000853295
0.000830747
0.000810926
0.00079106
0.00077111
0.000751188
0.000731239
0.000711304
0.000691357
0.00067141
0.000651457
0.0006315
0.000611537
0.000591565
0.000571586
0.0005516
0.000531605
0.000511601
0.000491588
0.000471571
0.00045154
0.000431507
0.000411455
0.000391415
0.000371344
0.000351295
0.000331203
0.000311155
0.000291047
0.000271003
0.000250879
0.000230844
0.000210706
0.000190682
0.00017054
0.000150515
0.000130399
0.000110303
9.03303e-05
7.00599e-05
5.02489e-05
2.99446e-05
1.00871e-05
0.000985758
0.000984427
0.000924064
0.000968976
0.00087255
0.000916264
0.000859799
0.000853275
0.000830749
0.000810926
0.00079106
0.00077111
0.000751188
0.000731239
0.000711304
0.000691357
0.00067141
0.000651457
0.0006315
0.000611536
0.000591564
0.000571585
0.0005516
0.000531605
0.000511601
0.000491587
0.000471571
0.000451539
0.000431507
0.000411455
0.000391415
0.000371344
0.000351294
0.000331203
0.000311154
0.000291047
0.000271003
0.000250879
0.000230844
0.000210705
0.000190682
0.00017054
0.000150515
0.000130399
0.000110303
9.03298e-05
7.00603e-05
5.02487e-05
2.99446e-05
1.00878e-05
0.000985765
0.000984501
0.000923988
0.000969008
0.000872607
0.000916169
0.000859865
0.000853249
0.000830752
0.000810926
0.000791059
0.00077111
0.000751188
0.000731239
0.000711304
0.000691357
0.00067141
0.000651457
0.0006315
0.000611536
0.000591564
0.000571585
0.0005516
0.000531605
0.0005116
0.000491587
0.00047157
0.000451539
0.000431507
0.000411455
0.000391414
0.000371343
0.000351294
0.000331203
0.000311154
0.000291046
0.000271003
0.000250879
0.000230843
0.000210705
0.000190682
0.00017054
0.000150515
0.000130399
0.000110304
9.03292e-05
7.00608e-05
5.02486e-05
2.99445e-05
1.00885e-05
0.000985773
0.000984587
0.000923898
0.000969046
0.000872673
0.00091606
0.000859942
0.00085322
0.000830755
0.000810926
0.000791059
0.00077111
0.000751188
0.000731239
0.000711304
0.000691357
0.00067141
0.000651457
0.000631499
0.000611536
0.000591564
0.000571585
0.000551599
0.000531605
0.0005116
0.000491587
0.00047157
0.000451539
0.000431506
0.000411455
0.000391414
0.000371343
0.000351294
0.000331203
0.000311154
0.000291046
0.000271003
0.000250878
0.000230843
0.000210705
0.000190682
0.00017054
0.000150515
0.000130398
0.000110304
9.03287e-05
7.00613e-05
5.02485e-05
2.99445e-05
1.00893e-05
0.000985785
0.000984684
0.000923793
0.000969091
0.000872747
0.000915936
0.000860029
0.000853186
0.000830759
0.000810926
0.000791058
0.00077111
0.000751188
0.000731239
0.000711304
0.000691356
0.000671409
0.000651456
0.000631499
0.000611536
0.000591563
0.000571585
0.000551599
0.000531604
0.000511599
0.000491587
0.00047157
0.000451539
0.000431506
0.000411455
0.000391414
0.000371343
0.000351294
0.000331203
0.000311154
0.000291046
0.000271003
0.000250878
0.000230843
0.000210705
0.000190682
0.00017054
0.000150515
0.000130398
0.000110305
9.0328e-05
7.00619e-05
5.02485e-05
2.99445e-05
1.00903e-05
0.000985801
0.000984792
0.000923675
0.000969142
0.000872829
0.000915798
0.000860127
0.000853147
0.000830764
0.000810926
0.000791058
0.00077111
0.000751188
0.000731239
0.000711304
0.000691356
0.000671409
0.000651456
0.000631499
0.000611536
0.000591563
0.000571585
0.000551599
0.000531604
0.000511599
0.000491587
0.000471569
0.000451539
0.000431506
0.000411454
0.000391413
0.000371343
0.000351293
0.000331203
0.000311154
0.000291046
0.000271003
0.000250878
0.000230843
0.000210705
0.000190682
0.000170539
0.000150515
0.000130398
0.000110305
9.03274e-05
7.00625e-05
5.02485e-05
2.99445e-05
1.00913e-05
0.000985822
0.000984912
0.000923543
0.000969198
0.00087292
0.000915645
0.000860235
0.000853104
0.000830769
0.000810926
0.000791057
0.00077111
0.000751188
0.000731239
0.000711303
0.000691356
0.000671409
0.000651456
0.000631498
0.000611536
0.000591562
0.000571585
0.000551598
0.000531604
0.000511599
0.000491586
0.000471569
0.000451538
0.000431505
0.000411454
0.000391413
0.000371343
0.000351293
0.000331203
0.000311154
0.000291046
0.000271003
0.000250878
0.000230843
0.000210705
0.000190682
0.000170539
0.000150516
0.000130397
0.000110306
9.03267e-05
7.00631e-05
5.02485e-05
2.99445e-05
1.00924e-05
0.000985845
0.000985042
0.000923398
0.000969258
0.000873019
0.000915478
0.000860352
0.000853056
0.000830775
0.000810927
0.000791057
0.00077111
0.000751187
0.000731239
0.000711303
0.000691356
0.000671409
0.000651456
0.000631498
0.000611535
0.000591562
0.000571584
0.000551598
0.000531604
0.000511598
0.000491586
0.000471569
0.000451538
0.000431505
0.000411454
0.000391413
0.000371343
0.000351293
0.000331203
0.000311154
0.000291046
0.000271002
0.000250878
0.000230843
0.000210705
0.000190682
0.000170539
0.000150516
0.000130397
0.000110306
9.03259e-05
7.00637e-05
5.02486e-05
2.99445e-05
1.00935e-05
0.000985866
0.000985183
0.000923243
0.000969321
0.000873127
0.000915296
0.000860478
0.000853005
0.000830782
0.000810927
0.000791056
0.000771111
0.000751187
0.000731239
0.000711303
0.000691356
0.000671408
0.000651456
0.000631497
0.000611535
0.000591562
0.000571584
0.000551597
0.000531603
0.000511598
0.000491586
0.000471568
0.000451538
0.000431505
0.000411454
0.000391413
0.000371342
0.000351293
0.000331202
0.000311154
0.000291046
0.000271002
0.000250878
0.000230843
0.000210705
0.000190682
0.000170539
0.000150516
0.000130396
0.000110307
9.03252e-05
7.00643e-05
5.02487e-05
2.99444e-05
1.00948e-05
0.000985877
0.000985333
0.000923078
0.000969385
0.000873245
0.0009151
0.000860614
0.000852949
0.000830789
0.000810927
0.000791056
0.000771111
0.000751187
0.000731239
0.000711303
0.000691356
0.000671408
0.000651456
0.000631497
0.000611535
0.000591561
0.000571584
0.000551597
0.000531603
0.000511598
0.000491586
0.000471568
0.000451538
0.000431504
0.000411453
0.000391412
0.000371342
0.000351293
0.000331202
0.000311154
0.000291046
0.000271002
0.000250878
0.000230843
0.000210705
0.000190682
0.000170539
0.000150516
0.000130396
0.000110308
9.03244e-05
7.0065e-05
5.02489e-05
2.99443e-05
1.00961e-05
0.000985871
0.00098549
0.000922908
0.000969446
0.000873372
0.00091489
0.000860759
0.000852891
0.000830797
0.000810928
0.000791055
0.000771111
0.000751187
0.00073124
0.000711303
0.000691356
0.000671408
0.000651456
0.000631497
0.000611535
0.000591561
0.000571584
0.000551597
0.000531603
0.000511597
0.000491585
0.000471568
0.000451537
0.000431504
0.000411453
0.000391412
0.000371342
0.000351293
0.000331202
0.000311153
0.000291046
0.000271002
0.000250878
0.000230843
0.000210705
0.000190682
0.000170539
0.000150516
0.000130395
0.000110308
9.03236e-05
7.00656e-05
5.0249e-05
2.99441e-05
1.00975e-05
0.000985841
0.000985654
0.000922735
0.000969501
0.000873513
0.000914663
0.000860913
0.00085283
0.000830806
0.000810928
0.000791055
0.000771111
0.000751187
0.00073124
0.000711302
0.000691356
0.000671408
0.000651455
0.000631496
0.000611534
0.000591561
0.000571583
0.000551596
0.000531603
0.000511597
0.000491585
0.000471567
0.000451537
0.000431504
0.000411453
0.000391412
0.000371342
0.000351292
0.000331202
0.000311153
0.000291046
0.000271002
0.000250878
0.000230843
0.000210705
0.000190682
0.000170538
0.000150516
0.000130395
0.000110309
9.03227e-05
7.00663e-05
5.02492e-05
2.99439e-05
1.00989e-05
0.000985788
0.000985829
0.000922562
0.000969539
0.000873672
0.000914418
0.000861077
0.000852767
0.000830816
0.000810928
0.000791054
0.000771111
0.000751187
0.00073124
0.000711302
0.000691356
0.000671407
0.000651455
0.000631496
0.000611534
0.00059156
0.000571583
0.000551596
0.000531602
0.000511596
0.000491585
0.000471567
0.000451537
0.000431504
0.000411453
0.000391412
0.000371342
0.000351292
0.000331202
0.000311153
0.000291046
0.000271002
0.000250878
0.000230843
0.000210705
0.000190682
0.000170538
0.000150517
0.000130394
0.00011031
9.03218e-05
7.0067e-05
5.02493e-05
2.99437e-05
1.01004e-05
0.000985715
0.000986026
0.000922399
0.000969546
0.000873864
0.00091415
0.000861252
0.000852703
0.000830826
0.000810929
0.000791054
0.000771111
0.000751187
0.00073124
0.000711302
0.000691356
0.000671407
0.000651455
0.000631496
0.000611534
0.00059156
0.000571583
0.000551596
0.000531602
0.000511596
0.000491585
0.000471567
0.000451537
0.000431503
0.000411453
0.000391412
0.000371342
0.000351292
0.000331202
0.000311153
0.000291046
0.000271002
0.000250877
0.000230843
0.000210704
0.000190682
0.000170538
0.000150517
0.000130394
0.00011031
9.03208e-05
7.00677e-05
5.02493e-05
2.99434e-05
1.01019e-05
0.0009856
0.000986256
0.00092227
0.00096949
0.000874112
0.000913854
0.000861436
0.00085264
0.000830836
0.000810929
0.000791054
0.000771111
0.000751187
0.00073124
0.000711302
0.000691356
0.000671407
0.000651455
0.000631495
0.000611534
0.00059156
0.000571583
0.000551595
0.000531602
0.000511596
0.000491584
0.000471566
0.000451536
0.000431503
0.000411452
0.000391411
0.000371341
0.000351292
0.000331202
0.000311153
0.000291046
0.000271002
0.000250877
0.000230843
0.000210704
0.000190682
0.000170538
0.000150517
0.000130393
0.000110311
9.03197e-05
7.00685e-05
5.02491e-05
2.99432e-05
1.01035e-05
0.000985352
0.000986467
0.000922233
0.000969319
0.000874439
0.000913536
0.000861618
0.000852581
0.000830846
0.00081093
0.000791053
0.000771111
0.000751187
0.00073124
0.000711302
0.000691355
0.000671407
0.000651455
0.000631495
0.000611533
0.000591559
0.000571582
0.000551595
0.000531602
0.000511596
0.000491584
0.000471566
0.000451536
0.000431503
0.000411452
0.000391411
0.000371341
0.000351292
0.000331201
0.000311153
0.000291046
0.000271002
0.000250877
0.000230843
0.000210704
0.000190681
0.000170538
0.000150516
0.000130392
0.000110311
9.03184e-05
7.00693e-05
5.02485e-05
2.99429e-05
1.01051e-05
0.000985082
0.000986466
0.000922375
0.000968993
0.000874825
0.000913247
0.000861766
0.000852538
0.000830852
0.00081093
0.000791053
0.000771112
0.000751187
0.00073124
0.000711302
0.000691355
0.000671407
0.000651455
0.000631495
0.000611533
0.000591559
0.000571582
0.000551595
0.000531601
0.000511595
0.000491584
0.000471566
0.000451536
0.000431503
0.000411452
0.000391411
0.000371341
0.000351292
0.000331201
0.000311153
0.000291046
0.000271001
0.000250877
0.000230843
0.000210704
0.000190681
0.000170538
0.000150516
0.000130392
0.000110311
9.03172e-05
7.00704e-05
5.02474e-05
2.99434e-05
1.01059e-05
0.000984999
0.000986075
0.000922888
0.00096852
0.000875069
0.00091318
0.000861764
0.000852546
0.000830849
0.00081093
0.000791053
0.000771112
0.000751186
0.00073124
0.000711302
0.000691356
0.000671407
0.000651455
0.000631495
0.000611534
0.000591559
0.000571582
0.000551595
0.000531602
0.000511596
0.000491584
0.000471566
0.000451536
0.000431503
0.000411452
0.000391411
0.000371341
0.000351292
0.000331202
0.000311153
0.000291046
0.000271001
0.000250878
0.000230842
0.000210705
0.000190681
0.000170538
0.000150516
0.000130393
0.000110311
9.03175e-05
7.00716e-05
5.02461e-05
2.99461e-05
1.01029e-05
0.000985514
0.000986447
0.000922186
0.000969287
0.000874723
0.000913162
0.000861919
0.00085249
0.000830873
0.000810933
0.00079106
0.00077111
0.000751189
0.000731239
0.000711305
0.000691356
0.000671412
0.000651456
0.000631502
0.000611536
0.000591567
0.000571586
0.000551603
0.000531605
0.000511604
0.000491589
0.000471574
0.00045154
0.000431511
0.000411457
0.000391418
0.000371345
0.000351297
0.000331205
0.000311157
0.000291048
0.000271004
0.000250879
0.000230845
0.000210706
0.000190683
0.000170539
0.000150516
0.000130395
0.000110309
9.03237e-05
7.00634e-05
5.02534e-05
2.99411e-05
1.01009e-05
0.000982537
0.000987232
0.000921838
0.000969245
0.00087497
0.000912938
0.000862032
0.000852456
0.000830879
0.000810933
0.00079106
0.00077111
0.000751189
0.000731239
0.000711305
0.000691356
0.000671412
0.000651457
0.000631502
0.000611536
0.000591567
0.000571586
0.000551603
0.000531605
0.000511604
0.000491589
0.000471574
0.000451541
0.000431511
0.000411457
0.000391418
0.000371345
0.000351298
0.000331205
0.000311157
0.000291048
0.000271005
0.000250879
0.000230846
0.000210706
0.000190683
0.000170537
0.000150517
0.000130393
0.000110309
9.03202e-05
7.00625e-05
5.02515e-05
2.99371e-05
1.01086e-05
0.000982737
0.000987349
0.000921676
0.000969462
0.000874726
0.000913126
0.000861929
0.000852487
0.000830873
0.000810932
0.00079106
0.00077111
0.000751189
0.000731239
0.000711305
0.000691356
0.000671412
0.000651457
0.000631502
0.000611536
0.000591567
0.000571586
0.000551603
0.000531605
0.000511604
0.000491589
0.000471574
0.000451541
0.000431511
0.000411457
0.000391418
0.000371345
0.000351298
0.000331205
0.000311157
0.000291048
0.000271005
0.000250879
0.000230846
0.000210705
0.000190683
0.000170537
0.000150517
0.000130393
0.000110309
9.03212e-05
7.00622e-05
5.02529e-05
2.99371e-05
1.01076e-05
0.00098317
0.0009872
0.000921682
0.000969613
0.000874432
0.000913406
0.000861764
0.00085254
0.000830864
0.000810932
0.00079106
0.00077111
0.000751189
0.000731239
0.000711305
0.000691356
0.000671412
0.000651457
0.000631502
0.000611536
0.000591567
0.000571586
0.000551603
0.000531605
0.000511604
0.000491589
0.000471574
0.000451541
0.000431511
0.000411457
0.000391418
0.000371345
0.000351298
0.000331205
0.000311157
0.000291048
0.000271005
0.000250879
0.000230846
0.000210706
0.000190683
0.000170538
0.000150517
0.000130394
0.000110308
9.03229e-05
7.00618e-05
5.02538e-05
2.99379e-05
1.01058e-05
0.000983349
0.000986964
0.000921813
0.000969652
0.000874187
0.000913691
0.000861585
0.0008526
0.000830854
0.000810931
0.00079106
0.00077111
0.000751189
0.000731239
0.000711305
0.000691356
0.000671412
0.000651457
0.000631502
0.000611536
0.000591567
0.000571586
0.000551603
0.000531606
0.000511604
0.000491589
0.000471575
0.000451541
0.000431511
0.000411457
0.000391418
0.000371345
0.000351298
0.000331205
0.000311157
0.000291048
0.000271005
0.000250879
0.000230846
0.000210706
0.000190683
0.000170538
0.000150517
0.000130395