/*--------------------------------*- C++ -*----------------------------------*\
| =========                 |                                                 |
| \\      /  F ield         | OpenFOAM: The Open Source CFD Toolbox           |
|  \\    /   O peration     | Version:  2412                                  |
|   \\  /    A nd           | Website:  www.openfoam.com                      |
|    \\/     M anipulation  |                                                 |
\*---------------------------------------------------------------------------*/
FoamFile
{
    version     2.0;
    format      ascii;
    arch        "LSB;label=32;scalar=64";
    class       surfaceScalarField;
    location    "1e-05";
    object      phi;
}
// * * * * * * * * * * * * * * * * * * * * * * * * * * * * * * * * * * * * * //

dimensions      [0 3 -1 0 0 0 0];

oriented        oriented;

internalField   nonuniform List<scalar> 
284064
(
1.72767e-20
1.10801e-22
1.0525e-22
3.28458e-20
-7.79714e-21
-7.7993e-21
6.60211e-22
1.60613e-20
1.60546e-20
4.38496e-20
-2.15658e-20
-2.15634e-20
4.51966e-21
1.96784e-20
1.96801e-20
2.85952e-20
-1.20038e-20
-1.2004e-20
1.8939e-20
4.85834e-21
4.85979e-21
2.10961e-20
-1.06314e-21
-1.06159e-21
2.09812e-20
7.91108e-23
8.036e-23
2.09611e-20
1.33181e-23
1.39965e-23
2.09881e-20
-6.69928e-25
-1.01469e-24
2.09833e-20
4.99114e-25
6.54859e-25
2.09961e-20
-7.66266e-25
-1.22783e-24
2.0992e-20
-1.63271e-24
-1.61756e-24
2.09965e-20
1.22501e-25
-3.9284e-25
2.09928e-20
-1.73911e-24
-1.96151e-24
2.09949e-20
-2.93979e-26
-3.58419e-25
2.09924e-20
-1.83064e-24
-2.1271e-24
2.0994e-20
-2.96994e-25
-2.88811e-25
2.09921e-20
-2.08272e-24
-1.84769e-24
2.09942e-20
-8.2665e-25
-6.91797e-25
2.09928e-20
-2.20206e-24
-1.94168e-24
2.09965e-20
-2.5004e-24
-1.604e-24
2.09965e-20
-3.51385e-24
-2.63528e-24
2.10007e-20
-3.21418e-24
-2.2601e-24
2.10007e-20
-3.50795e-24
-2.7639e-24
2.10075e-20
-4.83054e-24
-3.45251e-24
2.10075e-20
-3.07306e-24
-2.20561e-24
2.10152e-20
-4.25393e-24
-3.74067e-24
2.10123e-20
-4.98612e-25
-6.42127e-25
2.10238e-20
-5.60944e-24
-4.9484e-24
2.1019e-20
2.14785e-25
6.77913e-25
2.10336e-20
-6.95422e-24
-6.57267e-24
2.10233e-20
2.82501e-24
2.84559e-24
2.10427e-20
-9.63078e-24
-8.9227e-24
2.10279e-20
4.5594e-24
5.00969e-24
2.1052e-20
-1.17873e-23
-1.09059e-23
2.10292e-20
8.08351e-24
8.27673e-24
2.10596e-20
-1.51534e-23
-1.42235e-23
2.10305e-20
9.46092e-24
9.35522e-24
2.1065e-20
-1.89397e-23
-1.83596e-23
2.10338e-20
7.15871e-24
6.8682e-24
2.10651e-20
-2.02231e-23
-1.96056e-23
2.10551e-20
-6.31696e-24
-7.01579e-24
2.10355e-20
1.0924e-24
1.45414e-24
2.11189e-20
-5.52784e-23
-5.59743e-23
2.09972e-20
4.69658e-23
4.69369e-23
2.11566e-20
-8.76e-23
-8.85666e-23
2.10158e-20
5.22453e-23
5.16381e-23
1.17068e-25
-2.2806e-24
4.23763e-20
-1.64313e-20
6.79659e-21
5.60805e-20
2.13616e-21
-2.37165e-20
2.02632e-20
1.09292e-20
4.07517e-20
7.25684e-20
-2.6562e-20
-4.71399e-20
2.38248e-20
3.35552e-20
3.49488e-20
5.30965e-20
-2.505e-20
-1.60306e-20
4.20728e-20
1.22442e-20
3.81536e-21
4.40667e-20
-3.23939e-21
2.78419e-22
4.41614e-20
4.0551e-22
-2.92552e-22
4.4132e-20
4.07839e-23
2.48747e-23
4.41745e-20
2.03962e-23
9.6175e-24
4.4171e-20
1.4754e-24
-6.44326e-24
4.41924e-20
5.82695e-24
2.9306e-24
4.4187e-20
-9.95964e-24
-6.68958e-24
4.41948e-20
-2.2984e-24
6.48861e-24
4.41884e-20
-1.50616e-23
-1.2488e-24
4.41923e-20
-6.16138e-24
6.96921e-24
4.41874e-20
-1.52676e-23
-1.93434e-26
4.41902e-20
-9.1837e-24
8.55619e-24
4.4186e-20
-1.6847e-23
2.20971e-24
4.41895e-20
-1.08504e-23
7.86648e-24
4.41865e-20
-1.63089e-23
1.36207e-24
4.41924e-20
-1.49708e-23
5.28022e-24
4.41916e-20
-2.05012e-23
9.27046e-26
4.41979e-20
-1.55852e-23
2.07861e-24
4.41976e-20
-1.93188e-23
-2.035e-24
4.42074e-20
-1.85359e-23
-8.45467e-25
4.42081e-20
-1.74167e-23
-1.20489e-24
4.42185e-20
-1.42225e-23
-1.66526e-24
4.42157e-20
-1.0251e-23
1.08947e-24
4.42308e-20
-1.40615e-23
-4.39961e-24
4.42266e-20
-8.09026e-24
1.51127e-24
4.42448e-20
-1.3061e-23
-9.49647e-24
4.42339e-20
-3.4518e-24
4.16312e-24
4.42574e-20
-1.44911e-23
-1.68004e-23
4.42416e-20
-7.54974e-25
6.32654e-24
4.42699e-20
-1.42732e-23
-2.23061e-23
4.42444e-20
2.72784e-24
1.25975e-23
4.42795e-20
-1.61932e-23
-3.18642e-23
4.42469e-20
-1.37393e-24
1.3614e-23
4.42864e-20
-2.49752e-23
-4.21722e-23
4.42521e-20
-1.96074e-23
1.13621e-23
4.42888e-20
-3.19401e-23
-5.09807e-23
4.428e-20
-6.07074e-23
-4.01254e-24
4.4257e-20
-5.04661e-25
-2.61592e-23
4.43656e-20
-1.49789e-22
-9.40013e-23
4.42216e-20
4.25729e-23
6.72476e-23
4.44205e-20
-1.39135e-22
-1.9472e-22
4.42526e-20
-3.77886e-24
1.18737e-22
1.68956e-22
-1.48445e-23
5.68497e-20
-3.58686e-20
5.13522e-21
7.27389e-20
1.3797e-20
-2.76286e-20
3.22131e-20
4.23381e-21
4.70269e-20
8.91606e-20
-2.87445e-20
-5.45978e-20
3.94081e-20
4.20708e-20
4.13194e-20
6.62847e-20
-3.3152e-20
-1.85807e-20
5.79777e-20
1.62695e-20
4.458e-21
5.86036e-20
-4.20881e-21
4.40294e-22
5.90398e-20
4.90249e-22
-3.93396e-22
5.90142e-20
5.60846e-23
3.39882e-23
5.9059e-20
2.71632e-23
2.0984e-23
5.90592e-20
5.68378e-25
-7.72735e-24
5.9083e-20
5.79351e-24
6.81348e-24
5.90786e-20
-1.46536e-23
-1.09988e-23
5.9085e-20
-5.31715e-24
8.19937e-24
5.90765e-20
-2.11646e-23
-6.0081e-24
5.9078e-20
-1.14188e-23
8.16325e-24
5.90708e-20
-2.21147e-23
-3.92932e-24
5.90702e-20
-1.56167e-23
9.26608e-24
5.90626e-20
-2.3951e-23
-1.80736e-24
5.90628e-20
-1.76836e-23
7.69706e-24
5.9057e-20
-2.31274e-23
-2.96926e-24
5.90599e-20
-2.3415e-23
4.0798e-24
5.90565e-20
-2.89069e-23
-5.61014e-24
5.90603e-20
-2.3395e-23
-2.16896e-25
5.90582e-20
-2.68847e-23
-8.36013e-24
5.90664e-20
-2.70801e-23
-4.43282e-24
5.90656e-20
-2.49007e-23
-6.53815e-24
5.90745e-20
-2.02107e-23
-4.18334e-24
5.90705e-20
-1.53316e-23
-2.34274e-24
5.90847e-20
-1.82819e-23
-7.90896e-24
5.90803e-20
-1.44175e-23
-2.74676e-26
5.90981e-20
-1.49554e-23
-1.34976e-23
5.90872e-20
-7.83113e-24
2.38613e-24
5.91111e-20
-1.61012e-23
-2.0554e-23
5.90962e-20
-5.23236e-24
4.80375e-24
5.91246e-20
-1.44371e-23
-2.49761e-23
5.90993e-20
-2.86745e-24
1.27839e-23
5.91352e-20
-1.56206e-23
-3.44872e-23
5.91031e-20
-1.16452e-23
1.28622e-23
5.91443e-20
-2.62721e-23
-4.89287e-23
5.91099e-20
-3.97906e-23
5.31917e-24
5.91518e-20
-3.62214e-23
-6.39508e-23
5.9138e-20
-9.61204e-23
-1.75378e-23
5.91281e-20
6.15349e-25
-4.2158e-23
5.92356e-20
-2.10068e-22
-1.26709e-22
5.90974e-20
3.97379e-23
6.02918e-23
5.9318e-20
-1.61962e-22
-2.44666e-22
5.91319e-20
-4.23162e-23
1.21033e-22
2.90658e-22
4.09493e-23
6.63183e-20
-4.64546e-20
-5.96768e-21
8.41428e-20
2.12829e-20
-2.53874e-20
4.09005e-20
-2.04202e-21
4.93295e-20
9.99031e-20
-2.80974e-20
-5.94867e-20
5.02622e-20
4.58343e-20
4.59582e-20
7.55845e-20
-3.72797e-20
-2.10044e-20
6.8686e-20
1.8282e-20
5.05847e-21
6.86802e-20
-4.70102e-21
5.94156e-22
6.92632e-20
4.92279e-22
-4.59659e-22
6.92425e-20
6.20211e-23
3.92762e-23
6.9289e-20
2.8455e-23
2.33084e-23
6.9291e-20
-5.50168e-25
-8.67356e-24
6.93158e-20
3.85071e-24
7.30949e-24
6.93116e-20
-1.78575e-23
-1.19878e-23
6.93169e-20
-8.22525e-24
8.876e-24
6.93068e-20
-2.43701e-23
-6.85005e-24
6.93067e-20
-1.57312e-23
8.67549e-24
6.92977e-20
-2.59657e-23
-4.70197e-24
6.92947e-20
-2.00845e-23
9.46136e-24
6.92847e-20
-2.76314e-23
-2.42761e-24
6.92825e-20
-2.22023e-23
7.61669e-24
6.92744e-20
-2.63911e-23
-3.9418e-24
6.92748e-20
-2.83783e-23
3.00314e-24
6.92689e-20
-3.27778e-23
-7.33306e-24
6.92703e-20
-2.81573e-23
-9.74372e-25
6.92661e-20
-3.06791e-23
-9.71174e-24
6.92721e-20
-3.2229e-23
-5.72542e-24
6.92694e-20
-2.87248e-23
-7.93349e-24
6.92761e-20
-2.35832e-23
-4.83635e-24
6.92705e-20
-1.79092e-23
-2.84262e-24
6.92829e-20
-2.06964e-23
-8.1867e-24
6.92771e-20
-1.78996e-23
-1.28764e-24
6.92935e-20
-1.52378e-23
-1.38832e-23
6.92816e-20
-9.70539e-24
1.18938e-24
6.93046e-20
-1.66475e-23
-2.0898e-23
6.92891e-20
-7.58672e-24
3.50324e-24
6.93167e-20
-1.34795e-23
-2.53621e-23
6.92907e-20
-5.5535e-24
1.09026e-23
6.93261e-20
-1.43098e-23
-3.51177e-23
6.92937e-20
-1.79126e-23
9.68806e-24
6.93351e-20
-2.45557e-23
-5.23589e-23
6.93001e-20
-5.13943e-23
-1.86168e-24
6.9344e-20
-3.63406e-23
-7.02743e-23
6.93274e-20
-1.14541e-22
-3.04388e-23
6.9324e-20
4.46446e-24
-5.11281e-23
6.94288e-20
-2.39166e-22
-1.53614e-22
6.9294e-20
3.61094e-23
5.89947e-23
6.9523e-20
-1.63327e-22
-2.73094e-22
6.93248e-20
-5.81693e-23
1.12982e-22
3.62937e-22
9.17581e-23
7.27058e-20
-5.18684e-20
-1.1817e-20
9.2073e-20
2.46699e-20
-2.28298e-20
4.74418e-20
-5.55802e-21
4.79637e-20
1.07112e-19
-2.63819e-20
-6.12262e-20
5.79449e-20
4.65389e-20
4.85409e-20
8.23163e-20
-3.86962e-20
-2.27687e-20
7.61348e-20
1.89557e-20
5.67655e-21
7.5837e-20
-4.90698e-21
5.9922e-22
7.64876e-20
4.56265e-22
-4.90971e-22
7.64691e-20
5.91381e-23
4.64568e-23
7.6517e-20
2.66091e-23
2.40919e-23
7.652e-20
-1.43781e-24
-9.35411e-24
7.65452e-20
1.14421e-24
7.2858e-24
7.65412e-20
-2.03751e-23
-1.21495e-23
7.65459e-20
-1.06451e-23
8.70845e-24
7.6535e-20
-2.59096e-23
-7.32916e-24
7.65341e-20
-1.91647e-23
8.54464e-24
7.65241e-20
-2.80113e-23
-5.17931e-24
7.65198e-20
-2.28277e-23
8.89399e-24
7.65084e-20
-2.88171e-23
-3.28398e-24
7.65048e-20
-2.46649e-23
6.88801e-24
7.64953e-20
-2.74032e-23
-4.51181e-24
7.6494e-20
-3.04517e-23
1.71052e-24
7.64863e-20
-3.3553e-23
-8.43743e-24
7.6486e-20
-2.98274e-23
-2.34708e-24
7.64801e-20
-3.12089e-23
-1.10376e-23
7.64842e-20
-3.33931e-23
-7.95373e-24
7.64798e-20
-2.92363e-23
-9.33989e-24
7.64848e-20
-2.30752e-23
-7.05571e-24
7.64777e-20
-1.73305e-23
-4.24114e-24
7.64885e-20
-1.99097e-23
-9.96408e-24
7.64813e-20
-1.73797e-23
-3.7113e-24
7.64963e-20
-1.26214e-23
-1.54652e-23
7.64832e-20
-8.42244e-24
-5.29722e-25
7.65049e-20
-1.40226e-23
-2.30396e-23
7.64885e-20
-6.98131e-24
1.7333e-24
7.65149e-20
-8.95051e-24
-2.79088e-23
7.6488e-20
-5.02223e-24
8.95249e-24
7.65226e-20
-1.06081e-23
-3.69432e-23
7.64894e-20
-1.99997e-23
6.61514e-24
7.65303e-20
-2.10495e-23
-5.37819e-23
7.64944e-20
-5.66492e-23
-6.63672e-24
7.65387e-20
-3.42888e-23
-7.2914e-23
7.65198e-20
-1.21668e-22
-3.86193e-23
7.65193e-20
7.60569e-24
-5.28898e-23
7.6621e-20
-2.47651e-22
-1.69667e-22
7.64881e-20
3.11472e-23
5.96576e-23
7.67196e-20
-1.55855e-22
-2.82988e-22
7.65149e-20
-5.8398e-23
1.0596e-22
3.96284e-22
1.27629e-22
7.7157e-20
-5.42871e-20
-1.45605e-20
9.75844e-20
2.53607e-20
-2.11924e-20
5.24205e-20
-6.91569e-21
4.63424e-20
1.12049e-19
-2.45956e-20
-6.12583e-20
6.33763e-20
4.56175e-20
4.96702e-20
8.72304e-20
-3.8512e-20
-2.38559e-20
8.13814e-20
1.8839e-20
6.13086e-21
8.09565e-20
-4.94373e-21
5.56456e-22
8.164e-20
4.04243e-22
-5.09183e-22
8.16214e-20
5.26259e-23
5.09975e-23
8.16701e-20
2.34564e-23
2.38892e-23
8.16737e-20
-1.9031e-24
-9.97691e-24
8.16993e-20
-1.42407e-24
6.74034e-24
8.16954e-20
-2.2002e-23
-1.2622e-23
8.17e-20
-1.24144e-23
8.01267e-24
8.16889e-20
-2.66558e-23
-7.63166e-24
8.16876e-20
-2.17478e-23
7.93894e-24
8.16774e-20
-2.92837e-23
-5.28954e-24
8.16725e-20
-2.44625e-23
8.16329e-24
8.16605e-20
-2.91317e-23
-3.42887e-24
8.16563e-20
-2.57139e-23
6.08517e-24
8.16462e-20
-2.76723e-23
-4.34598e-24
8.16438e-20
-3.07533e-23
7.53327e-25
8.16352e-20
-3.27763e-23
-8.85728e-24
8.16338e-20
-2.9163e-23
-3.62971e-24
8.16269e-20
-2.97323e-23
-1.17677e-23
8.16297e-20
-3.16401e-23
-9.7672e-24
8.16243e-20
-2.73172e-23
-1.05427e-23
8.16281e-20
-1.94599e-23
-9.01687e-24
8.16199e-20
-1.45985e-23
-5.14908e-24
8.16296e-20
-1.6358e-23
-1.17729e-23
8.16214e-20
-1.48778e-23
-4.59271e-24
8.16353e-20
-7.89812e-24
-1.65371e-23
8.16213e-20
-5.42005e-24
-1.11025e-24
8.16419e-20
-8.88216e-24
-2.46991e-23
8.16247e-20
-4.63555e-24
9.78393e-25
8.165e-20
-3.17393e-24
-2.82034e-23
8.16224e-20
-2.86357e-24
8.42261e-24
8.1656e-20
-5.8081e-24
-3.74689e-23
8.1622e-20
-1.99977e-23
5.4917e-24
8.16621e-20
-1.71462e-23
-5.3488e-23
8.16253e-20
-5.81585e-23
-8.90286e-24
8.1669e-20
-3.12246e-23
-7.36114e-23
8.16484e-20
-1.22525e-22
-4.24976e-23
8.16484e-20
9.64716e-24
-5.20115e-23
8.17472e-20
-2.4468e-22
-1.76942e-22
8.16153e-20
2.57216e-23
6.04251e-23
8.18465e-20
-1.44949e-22
-2.84881e-22
8.16392e-20
-5.06388e-23
1.02157e-22
4.05748e-22
1.4661e-22
8.03522e-20
-5.4914e-20
-1.56013e-20
1.01348e-19
2.43009e-20
-2.00087e-20
5.61736e-20
-7.32853e-21
4.54109e-20
1.1547e-19
-2.29987e-20
-6.07396e-20
6.71818e-20
4.38651e-20
5.01152e-20
9.08199e-20
-3.73858e-20
-2.45852e-20
8.50861e-20
1.82634e-20
6.47168e-21
8.46147e-20
-4.871e-21
4.92864e-22
8.53156e-20
3.4871e-22
-5.23943e-22
8.52952e-20
4.57122e-23
5.38772e-23
8.53442e-20
2.01476e-23
2.32037e-23
8.53482e-20
-2.01428e-24
-1.04497e-23
8.53741e-20
-3.67477e-24
6.18187e-24
8.53705e-20
-2.28123e-23
-1.32081e-23
8.53752e-20
-1.37107e-23
7.30139e-24
8.53641e-20
-2.72292e-23
-7.74182e-24
8.5363e-20
-2.35265e-23
7.08819e-24
8.53528e-20
-3.02347e-23
-5.38821e-24
8.53478e-20
-2.52881e-23
7.28882e-24
8.53358e-20
-2.92206e-23
-3.48847e-24
8.53314e-20
-2.60079e-23
5.49518e-24
8.53211e-20
-2.74561e-23
-4.46495e-24
8.53184e-20
-2.98927e-23
-1.37721e-25
8.53093e-20
-3.13359e-23
-9.03218e-24
8.53074e-20
-2.68223e-23
-4.78613e-24
8.52999e-20
-2.74386e-23
-1.18945e-23
8.53021e-20
-2.84395e-23
-1.06749e-23
8.52961e-20
-2.43684e-23
-1.09458e-23
8.52993e-20
-1.48514e-23
-9.37495e-24
8.52906e-20
-1.12975e-23
-5.03294e-24
8.52997e-20
-1.1823e-23
-1.22819e-23
8.5291e-20
-1.1975e-23
-4.41858e-24
8.53042e-20
-2.9014e-24
-1.61766e-23
8.52896e-20
-2.12631e-24
-7.00885e-25
8.53096e-20
-3.29061e-24
-2.46159e-23
8.52918e-20
-2.04761e-24
1.36834e-24
8.53164e-20
1.97911e-24
-2.68995e-23
8.52883e-20
-6.82558e-25
9.13732e-24
8.53212e-20
-1.65337e-24
-3.63579e-23
8.52866e-20
-1.94301e-23
5.65561e-24
8.53259e-20
-1.35151e-23
-5.24515e-23
8.5288e-20
-5.77971e-23
-9.50509e-24
8.53309e-20
-2.78019e-23
-7.32291e-23
8.53089e-20
-1.20224e-22
-4.37663e-23
8.53082e-20
1.06172e-23
-4.99436e-23
8.54045e-20
-2.35507e-22
-1.79725e-22
8.52727e-20
2.08406e-23
6.08418e-23
8.55025e-20
-1.3222e-22
-2.84218e-22
8.5295e-20
-4.04611e-23
1.00986e-22
4.02202e-22
1.5403e-22
8.26967e-20
-5.43085e-20
-1.58498e-20
1.03859e-19
2.24092e-20
-1.93432e-20
5.89756e-20
-7.4341e-21
4.48164e-20
1.1786e-19
-2.15284e-20
-6.02021e-20
6.98132e-20
4.16624e-20
5.03214e-20
9.34328e-20
-3.56977e-20
-2.51318e-20
8.76935e-20
1.74413e-20
6.7209e-21
8.7215e-20
-4.7142e-21
4.15137e-22
8.79263e-20
2.96305e-22
-5.37915e-22
8.79031e-20
3.91463e-23
5.70562e-23
8.79521e-20
1.71941e-23
2.24913e-23
8.79564e-20
-1.84979e-24
-1.07793e-23
8.79824e-20
-5.56598e-24
5.82207e-24
8.79791e-20
-2.31765e-23
-1.34087e-23
8.7984e-20
-1.45444e-23
6.56086e-24
8.79731e-20
-2.75507e-23
-8.13839e-24
8.79722e-20
-2.4686e-23
6.36303e-24
8.79622e-20
-3.08743e-23
-5.65175e-24
8.79574e-20
-2.5247e-23
6.1492e-24
8.79455e-20
-2.91361e-23
-3.81034e-24
8.79411e-20
-2.55269e-23
4.66821e-24
8.79309e-20
-2.68132e-23
-4.8241e-24
8.79282e-20
-2.81351e-23
-1.11971e-24
8.79191e-20
-2.95964e-23
-9.29258e-24
8.7917e-20
-2.38255e-23
-5.28242e-24
8.79094e-20
-2.50464e-23
-1.17355e-23
8.79114e-20
-2.48666e-23
-1.09886e-23
8.79053e-20
-2.17639e-23
-1.0461e-23
8.79083e-20
-1.06678e-23
-8.6892e-24
8.78995e-20
-8.53131e-24
-4.20428e-24
8.79084e-20
-7.4289e-24
-1.21045e-23
8.78995e-20
-9.7227e-24
-3.65557e-24
8.79125e-20
1.74465e-24
-1.55558e-23
8.78977e-20
6.11787e-25
1.94591e-25
8.79173e-20
1.41784e-24
-2.35848e-23
8.78993e-20
-1.48592e-25
2.29165e-24
8.79236e-20
6.61253e-24
-2.59847e-23
8.78952e-20
6.30202e-25
1.0439e-23
8.79277e-20
1.99088e-24
-3.5654e-23
8.78926e-20
-1.89261e-23
6.09939e-24
8.79312e-20
-1.01146e-23
-5.15524e-23
8.78926e-20
-5.67155e-23
-9.22841e-24
8.79345e-20
-2.43077e-23
-7.25382e-23
8.79112e-20
-1.16392e-22
-4.38952e-23
8.79092e-20
1.13737e-23
-4.80957e-23
8.80037e-20
-2.22551e-22
-1.80724e-22
8.78714e-20
1.71221e-23
6.11113e-23
8.80995e-20
-1.18075e-22
-2.82844e-22
8.78929e-20
-3.07227e-23
1.01171e-22
3.92073e-22
1.55569e-22
8.44515e-20
-5.27663e-20
-1.57513e-20
1.05499e-19
2.01772e-20
-1.88869e-20
6.10481e-20
-7.40267e-21
4.42489e-20
1.19537e-19
-2.0098e-20
-5.97679e-20
7.16031e-20
3.91706e-20
5.04959e-20
9.53252e-20
-3.36657e-20
-2.5581e-20
8.95163e-20
1.64954e-20
6.91203e-21
8.90497e-20
-4.48886e-21
3.3415e-22
8.97678e-20
2.5051e-22
-5.51759e-22
8.97413e-20
3.3678e-23
5.99424e-23
8.97901e-20
1.47125e-23
2.20245e-23
8.97944e-20
-1.19233e-24
-1.12774e-23
8.98207e-20
-7.17066e-24
5.61325e-24
8.98176e-20
-2.31518e-23
-1.36059e-23
8.98226e-20
-1.4945e-23
5.89199e-24
8.9812e-20
-2.72895e-23
-8.93194e-24
8.98112e-20
-2.55418e-23
5.95776e-24
8.98015e-20
-3.11847e-23
-6.01687e-24
8.97969e-20
-2.48631e-23
5.50709e-24
8.97852e-20
-2.89749e-23
-4.15535e-24
8.9781e-20
-2.45513e-23
4.04866e-24
8.9771e-20
-2.59634e-23
-5.1168e-24
8.97684e-20
-2.59006e-23
-1.83454e-24
8.97595e-20
-2.80458e-23
-9.30483e-24
8.97575e-20
-2.09003e-23
-5.24997e-24
8.975e-20
-2.31534e-23
-1.12549e-23
8.97521e-20
-2.16314e-23
-1.0853e-23
8.97461e-20
-1.99667e-23
-9.80567e-24
8.97492e-20
-7.08375e-24
-8.09673e-24
8.97404e-20
-6.68522e-24
-3.28359e-24
8.97495e-20
-3.57305e-24
-1.17925e-23
8.97408e-20
-8.39589e-24
-2.92418e-24
8.97538e-20
6.15737e-24
-1.53291e-23
8.97391e-20
2.40261e-24
1.18532e-24
8.97586e-20
5.49545e-24
-2.30727e-23
8.97406e-20
8.25632e-25
3.1657e-24
8.97649e-20
1.03975e-23
-2.49933e-23
8.97366e-20
1.16947e-24
1.13756e-23
8.97687e-20
5.276e-24
-3.52822e-23
8.97334e-20
-1.86499e-23
6.47506e-24
8.97715e-20
-6.83943e-24
-5.0895e-23
8.97324e-20
-5.54731e-23
-8.65103e-24
8.97733e-20
-2.06719e-23
-7.19334e-23
8.97491e-20
-1.11632e-22
-4.37633e-23
8.97456e-20
1.25053e-23
-4.66764e-23
8.98387e-20
-2.07326e-22
-1.80927e-22
8.97057e-20
1.44576e-23
6.16815e-23
8.99321e-20
-1.03019e-22
-2.81175e-22
8.97269e-20
-2.27993e-23
1.01854e-22
3.78088e-22
1.55063e-22
8.57807e-20
-5.04898e-20
-1.55089e-20
1.06544e-19
1.79251e-20
-1.85818e-20
6.25698e-20
-7.19318e-21
4.35962e-20
1.20718e-19
-1.86547e-20
-5.94404e-20
7.27962e-20
3.64766e-20
5.06838e-20
9.66892e-20
-3.14218e-20
-2.59665e-20
9.07789e-20
1.54823e-20
7.07811e-21
9.03326e-20
-4.21125e-21
2.6079e-22
9.10561e-20
2.11976e-22
-5.6456e-22
9.10261e-20
2.9912e-23
6.24602e-23
9.10745e-20
1.28568e-23
2.16501e-23
9.10788e-20
-1.19402e-25
-1.16446e-23
9.11051e-20
-8.58246e-24
5.68987e-24
9.11022e-20
-2.25567e-23
-1.38895e-23
9.11073e-20
-1.51125e-23
5.51563e-24
9.10968e-20
-2.65267e-23
-9.63422e-24
9.10962e-20
-2.58969e-23
5.45144e-24
9.10867e-20
-3.125e-23
-6.25621e-24
9.10822e-20
-2.43495e-23
5.10417e-24
9.10708e-20
-2.8579e-23
-4.69604e-24
9.10668e-20
-2.34173e-23
3.78145e-24
9.10571e-20
-2.50626e-23
-5.29303e-24
9.10547e-20
-2.37041e-23
-2.10757e-24
9.1046e-20
-2.70162e-23
-9.12313e-24
9.10442e-20
-1.8257e-23
-5.10987e-24
9.10369e-20
-2.18601e-23
-1.08368e-23
9.10392e-20
-1.86852e-23
-1.09558e-23
9.10335e-20
-1.90449e-23
-9.29464e-24
9.10368e-20
-3.9284e-24
-7.78474e-24
9.10283e-20
-5.71926e-24
-2.5335e-24
9.10376e-20
-5.29024e-25
-1.1381e-23
9.10293e-20
-7.78828e-24
-2.62522e-24
9.10425e-20
9.93215e-24
-1.48248e-23
9.1028e-20
3.17858e-24
2.077e-24
9.10477e-20
8.9121e-24
-2.27487e-23
9.10299e-20
1.01577e-24
3.66461e-24
9.10543e-20
1.33935e-23
-2.4196e-23
9.10262e-20
1.15115e-24
1.19499e-23
9.10583e-20
7.96056e-24
-3.48989e-23
9.10229e-20
-1.87306e-23
6.715e-24
9.10606e-20
-3.74278e-24
-5.03435e-23
9.10211e-20
-5.42515e-23
-8.13495e-24
9.10612e-20
-1.71296e-23
-7.13162e-23
9.10364e-20
-1.06104e-22
-4.38452e-23
9.10314e-20
1.37832e-23
-4.5014e-23
9.11236e-20
-1.90689e-22
-1.80721e-22
9.09898e-20
1.24947e-23
6.26877e-23
9.12147e-20
-8.74628e-23
-2.79361e-22
9.1011e-20
-1.6999e-23
1.02668e-22
3.61383e-22
1.54535e-22
8.6796e-20
-4.76322e-20
-1.5237e-20
1.07192e-19
1.58272e-20
-1.83678e-20
6.36773e-20
-6.8245e-21
4.29789e-20
1.21551e-19
-1.71815e-20
-5.91958e-20
7.35714e-20
3.36506e-20
5.08716e-20
9.76684e-20
-2.90495e-20
-2.63014e-20
9.16435e-20
1.44227e-20
7.23718e-21
9.12209e-20
-3.89561e-21
1.98496e-22
9.19492e-20
1.81738e-22
-5.77766e-22
9.19157e-20
2.79723e-23
6.47389e-23
9.19635e-20
1.1793e-23
2.12666e-23
9.19677e-20
1.19903e-24
-1.18081e-23
9.19941e-20
-9.83512e-24
5.82691e-24
9.19913e-20
-2.16746e-23
-1.39277e-23
9.19964e-20
-1.52828e-23
5.45634e-24
9.1986e-20
-2.5609e-23
-9.95772e-24
9.19855e-20
-2.59797e-23
5.23782e-24
9.19762e-20
-3.12436e-23
-6.31809e-24
9.19718e-20
-2.36512e-23
4.7283e-24
9.19606e-20
-2.79796e-23
-5.17608e-24
9.19567e-20
-2.2248e-23
3.68373e-24
9.19472e-20
-2.42701e-23
-5.31076e-24
9.1945e-20
-2.16636e-23
-2.23822e-24
9.19367e-20
-2.62035e-23
-9.27679e-24
9.1935e-20
-1.58801e-23
-5.00514e-24
9.1928e-20
-2.10007e-23
-1.06536e-23
9.19306e-20
-1.60262e-23
-1.10882e-23
9.19253e-20
-1.85838e-23
-9.26887e-24
9.19288e-20
-1.26569e-24
-7.46129e-24
9.19207e-20
-5.40927e-24
-2.09535e-24
9.19303e-20
1.71754e-24
-1.10224e-23
9.19223e-20
-7.75048e-24
-2.55827e-24
9.19358e-20
1.25592e-23
-1.3877e-23
9.19217e-20
3.11446e-24
2.68013e-24
9.19416e-20
1.14921e-23
-2.23187e-23
9.19241e-20
5.46069e-25
3.94517e-24
9.19488e-20
1.58288e-23
-2.37259e-23
9.19209e-20
4.68005e-25
1.25251e-23
9.19531e-20
1.00274e-23
-3.45692e-23
9.19177e-20
-1.91542e-23
6.84751e-24
9.19552e-20
-8.33973e-25
-4.98999e-23
9.19155e-20
-5.30156e-23
-7.83172e-24
9.1955e-20
-1.35987e-23
-7.08901e-23
9.19297e-20
-9.98366e-23
-4.4121e-23
9.19234e-20
1.48468e-23
-4.31869e-23
9.20151e-20
-1.73453e-22
-1.80187e-22
9.18804e-20
1.08025e-23
6.40289e-23
9.21043e-20
-7.18773e-23
-2.77511e-22
9.19019e-20
-1.34104e-23
1.03452e-22
3.42481e-22
1.54276e-22
8.7573e-20
-4.43044e-20
-1.50043e-20
1.07579e-19
1.39335e-20
-1.81812e-20
6.44768e-20
-6.37652e-21
4.24888e-20
1.22139e-19
-1.56756e-20
-5.9017e-20
7.40585e-20
3.07407e-20
5.10547e-20
9.83702e-20
-2.66025e-20
-2.65933e-20
9.22277e-20
1.33224e-20
7.39332e-21
9.18294e-20
-3.55401e-21
1.47417e-22
9.25625e-20
1.59956e-22
-5.9101e-22
9.25256e-20
2.78023e-23
6.69038e-23
9.25729e-20
1.16522e-23
2.08454e-23
9.2577e-20
2.8955e-24
-1.20853e-23
9.26033e-20
-1.07521e-23
5.92451e-24
9.26006e-20
-2.08288e-23
-1.35448e-23
9.26057e-20
-1.54498e-23
5.46837e-24
9.25954e-20
-2.46082e-23
-1.01707e-23
9.25949e-20
-2.59298e-23
5.26413e-24
9.25856e-20
-3.08947e-23
-6.59044e-24
9.25813e-20
-2.27508e-23
4.39895e-24
9.25703e-20
-2.73388e-23
-5.46883e-24
9.25665e-20
-2.09913e-23
3.58998e-24
9.25571e-20
-2.37331e-23
-5.14975e-24
9.2555e-20
-1.97338e-23
-2.39552e-24
9.2547e-20
-2.54389e-23
-9.61873e-24
9.25455e-20
-1.37421e-23
-4.91966e-24
9.25388e-20
-2.04502e-23
-1.06228e-23
9.25416e-20
-1.37428e-23
-1.11668e-23
9.25367e-20
-1.83323e-23
-9.54566e-24
9.25405e-20
9.74169e-25
-7.17169e-24
9.25327e-20
-5.55214e-24
-1.84146e-24
9.25427e-20
3.41185e-24
-1.09301e-23
9.25352e-20
-8.23243e-24
-2.58314e-24
9.25489e-20
1.43747e-23
-1.32546e-23
9.25351e-20
2.49288e-24
2.99115e-24
9.25554e-20
1.33927e-23
-2.21039e-23
9.25382e-20
-5.19583e-25
4.09332e-24
9.25632e-20
1.76438e-23
-2.3201e-23
9.25355e-20
-7.15876e-25
1.29246e-23
9.25678e-20
1.16138e-23
-3.44922e-23
9.25325e-20
-1.98631e-23
6.78186e-24
9.257e-20
2.02337e-24
-4.96957e-23
9.25301e-20
-5.17522e-23
-7.69499e-24
9.25691e-20
-9.81351e-24
-7.09581e-23
9.25435e-20
-9.32726e-23
-4.4209e-23
9.25361e-20
1.56957e-23
-4.15096e-23
9.26275e-20
-1.56185e-22
-1.79311e-22
9.24922e-20
9.1138e-24
6.55492e-23
9.27152e-20
-5.64808e-23
-2.75709e-22
9.25139e-20
-1.18156e-23
1.04265e-22
3.21903e-22
1.5439e-22
8.81655e-20
-4.05875e-20
-1.48413e-20
1.07799e-19
1.22405e-20
-1.80091e-20
6.50521e-20
-5.89123e-21
4.20979e-20
1.22555e-19
-1.41333e-20
-5.88941e-20
7.43503e-20
2.77783e-20
5.123e-20
9.88735e-20
-2.41123e-20
-2.68502e-20
9.26164e-20
1.2183e-20
7.54508e-21
9.22417e-20
-3.19686e-21
1.07636e-22
9.29795e-20
1.44498e-22
-6.02081e-22
9.29396e-20
2.90605e-23
6.89755e-23
9.29864e-20
1.24321e-23
2.04508e-23
9.29903e-20
4.92871e-24
-1.2315e-23
9.30166e-20
-1.12272e-23
5.87851e-24
9.30139e-20
-1.99402e-23
-1.33065e-23
9.30189e-20
-1.54577e-23
5.36293e-24
9.30086e-20
-2.34388e-23
-1.04383e-23
9.30081e-20
-2.54417e-23
5.00501e-24
9.2999e-20
-3.0093e-23
-6.97323e-24
9.29946e-20
-2.15951e-23
4.08717e-24
9.29837e-20
-2.66181e-23
-5.75324e-24
9.29799e-20
-1.95732e-23
3.46486e-24
9.29707e-20
-2.33196e-23
-5.10175e-24
9.29688e-20
-1.78202e-23
-2.5809e-24
9.2961e-20
-2.47561e-23
-9.88929e-24
9.29596e-20
-1.17519e-23
-4.886e-24
9.29532e-20
-2.01576e-23
-1.06282e-23
9.29562e-20
-1.17018e-23
-1.13142e-23
9.29517e-20
-1.82126e-23
-9.85322e-24
9.29557e-20
2.84839e-24
-6.91605e-24
9.29482e-20
-6.03672e-24
-1.69673e-24
9.29584e-20
4.85112e-24
-1.10778e-23
9.29513e-20
-9.04127e-24
-2.75445e-24
9.29653e-20
1.58612e-23
-1.30986e-23
9.29518e-20
1.45399e-24
3.16483e-24
9.29724e-20
1.47981e-23
-2.20337e-23
9.29555e-20
-2.04921e-24
4.14135e-24
9.29808e-20
1.8893e-23
-2.27383e-23
9.29534e-20
-2.22829e-24
1.3145e-23
9.29859e-20
1.29317e-23
-3.45945e-23
9.29507e-20
-2.06734e-23
6.55276e-24
9.29881e-20
4.7671e-24
-4.94861e-23
9.29481e-20
-5.04653e-23
-7.63948e-24
9.29868e-20
-5.92777e-24
-7.09354e-23
9.29611e-20
-8.69052e-23
-4.3894e-23
9.29528e-20
1.62798e-23
-4.00396e-23
9.30442e-20
-1.39199e-22
-1.78416e-22
9.29082e-20
7.25711e-24
6.70481e-23
9.31308e-20
-4.15162e-23
-2.74023e-22
9.29302e-20
-1.21273e-23
1.05049e-22
2.99893e-22
1.54754e-22
8.8616e-20
-3.65401e-20
-1.47583e-20
1.07916e-19
1.07018e-20
-1.78296e-20
6.54661e-20
-5.38892e-21
4.1786e-20
1.2285e-19
-1.25573e-20
-5.88085e-20
7.45124e-20
2.47851e-20
5.1392e-20
9.92358e-20
-2.15962e-20
-2.70786e-20
9.28704e-20
1.10057e-20
7.68902e-21
9.25179e-20
-2.83272e-21
7.77132e-23
9.32603e-20
1.33856e-22
-6.11627e-22
9.32179e-20
3.13947e-23
7.10383e-23
9.32641e-20
1.42999e-23
1.98821e-23
9.32678e-20
7.20465e-24
-1.24596e-23
9.32941e-20
-1.11926e-23
5.86259e-24
9.32915e-20
-1.87002e-23
-1.33113e-23
9.32963e-20
-1.52553e-23
5.25106e-24
9.3286e-20
-2.22059e-23
-1.05774e-23
9.32855e-20
-2.44691e-23
4.76019e-24
9.32764e-20
-2.90845e-23
-7.06569e-24
9.3272e-20
-2.02545e-23
3.88049e-24
9.32612e-20
-2.57852e-23
-6.05309e-24
9.32574e-20
-1.78914e-23
3.27688e-24
9.32483e-20
-2.29535e-23
-5.11187e-24
9.32464e-20
-1.59336e-23
-2.72359e-24
9.32388e-20
-2.42255e-23
-1.00811e-23
9.32376e-20
-9.81507e-24
-4.91448e-24
9.32313e-20
-2.00478e-23
-1.07002e-23
9.32346e-20
-9.76631e-24
-1.15868e-23
9.32304e-20
-1.82087e-23
-1.01704e-23
9.32345e-20
4.42452e-24
-6.65355e-24
9.32273e-20
-6.75676e-24
-1.59344e-24
9.32378e-20
6.21201e-24
-1.13708e-23
9.3231e-20
-1.00308e-23
-3.04951e-24
9.32452e-20
1.71016e-23
-1.29565e-23
9.3232e-20
1.3476e-25
3.25908e-24
9.32528e-20
1.58482e-23
-2.20965e-23
9.32363e-20
-3.87881e-24
4.03188e-24
9.32618e-20
1.97406e-23
-2.23826e-23
9.32346e-20
-4.00255e-24
1.33464e-23
9.32673e-20
1.40201e-23
-3.47873e-23
9.32322e-20
-2.15169e-23
6.18301e-24
9.32696e-20
7.26043e-24
-4.9193e-23
9.32296e-20
-4.9144e-23
-7.65823e-24
9.32681e-20
-2.27231e-24
-7.07567e-23
9.32423e-20
-8.08959e-23
-4.35624e-23
9.32333e-20
1.67593e-23
-3.88769e-23
9.33247e-20
-1.22371e-22
-1.77692e-22
9.31883e-20
5.22395e-24
6.84313e-23
9.34106e-20
-2.70522e-23
-2.72423e-22
9.32106e-20
-1.40632e-23
1.05851e-22
2.76815e-22
1.55327e-22
8.89561e-20
-3.22048e-20
-1.47495e-20
1.07972e-19
9.27326e-21
-1.76553e-20
6.57657e-20
-4.8817e-21
4.1539e-20
1.23059e-19
-1.09563e-20
-5.87429e-20
7.45903e-20
2.17759e-20
5.15381e-20
9.94982e-20
-1.90595e-20
-2.72858e-20
9.3033e-20
9.7934e-21
7.8221e-21
9.27006e-20
-2.46781e-21
5.60868e-23
9.34476e-20
1.26679e-22
-6.19666e-22
9.3403e-20
3.44238e-23
7.2987e-23
9.34486e-20
1.6994e-23
1.95432e-23
9.34522e-20
9.65845e-24
-1.2564e-23
9.34784e-20
-1.08021e-23
5.92098e-24
9.34759e-20
-1.72709e-23
-1.32432e-23
9.34807e-20
-1.48443e-23
5.14592e-24
9.34703e-20
-2.10055e-23
-1.06177e-23
9.34697e-20
-2.33221e-23
4.81862e-24
9.34608e-20
-2.80832e-23
-6.96962e-24
9.34563e-20
-1.87581e-23
3.74402e-24
9.34455e-20
-2.48737e-23
-6.29446e-24
9.34417e-20
-1.59271e-23
3.10036e-24
9.34327e-20
-2.26753e-23
-5.08048e-24
9.34308e-20
-1.40322e-23
-2.84748e-24
9.34234e-20
-2.381e-23
-1.02696e-23
9.34222e-20
-7.90682e-24
-4.91669e-24
9.34162e-20
-2.00308e-23
-1.08374e-23
9.34196e-20
-7.85185e-24
-1.18559e-23
9.34157e-20
-1.83169e-23
-1.04239e-23
9.34199e-20
5.80475e-24
-6.45812e-24
9.34129e-20
-7.62295e-24
-1.56044e-24
9.34235e-20
7.53384e-24
-1.16225e-23
9.34171e-20
-1.11391e-23
-3.33551e-24
9.34315e-20
1.80809e-23
-1.27553e-23
9.34185e-20
-1.37536e-24
3.2959e-24
9.34395e-20
1.66826e-23
-2.22235e-23
9.34232e-20
-5.66128e-24
3.64639e-24
9.34489e-20
2.03421e-23
-2.21491e-23
9.34219e-20
-5.82213e-24
1.33538e-23
9.34547e-20
1.494e-23
-3.49725e-23
9.34197e-20
-2.22655e-23
5.75501e-24
9.34571e-20
9.6211e-24
-4.90331e-23
9.34171e-20
-4.77312e-23
-7.74347e-24
9.34555e-20
1.22668e-24
-7.06697e-23
9.34297e-20
-7.48886e-23
-4.35801e-23
9.34201e-20
1.70066e-23
-3.78187e-23
9.35117e-20
-1.05738e-22
-1.77072e-22
9.33751e-20
2.92744e-24
6.97018e-23
9.35972e-20
-1.31659e-23
-2.70955e-22
9.33975e-20
-1.76575e-23
1.06703e-22
2.52806e-22
1.5593e-22
8.92098e-20
-2.76256e-20
-1.47886e-20
1.07992e-19
7.90823e-21
-1.74849e-20
6.59842e-20
-4.38097e-21
4.1349e-20
1.23207e-19
-9.34185e-21
-5.86859e-20
7.46159e-20
1.87529e-20
5.16735e-20
9.96901e-20
-1.64978e-20
-2.74793e-20
9.31344e-20
8.55069e-21
7.9408e-21
9.28201e-20
-2.10617e-21
4.05049e-23
9.35713e-20
1.21481e-22
-6.25989e-22
9.35249e-20
3.79276e-23
7.47728e-23
9.35701e-20
2.01675e-23
1.95221e-23
9.35735e-20
1.22557e-23
-1.26641e-23
9.35997e-20
-1.00786e-23
6.07529e-24
9.35973e-20
-1.58167e-23
-1.29561e-23
9.36019e-20
-1.42094e-23
5.0506e-24
9.35916e-20
-1.9955e-23
-1.05356e-23
9.35909e-20
-2.21257e-23
5.04363e-24
9.3582e-20
-2.70726e-23
-6.86802e-24
9.35774e-20
-1.71008e-23
3.62042e-24
9.35667e-20
-2.40041e-23
-6.42152e-24
9.35628e-20
-1.39223e-23
3.19738e-24
9.35539e-20
-2.23549e-23
-5.1852e-24
9.3552e-20
-1.20756e-23
-2.99156e-24
9.35448e-20
-2.3454e-23
-1.05156e-23
9.35436e-20
-6.05048e-24
-4.8649e-24
9.35378e-20
-2.00152e-23
-1.10654e-23
9.35413e-20
-6.03472e-24
-1.20303e-23
9.35376e-20
-1.85073e-23
-1.07017e-23
9.35418e-20
7.06839e-24
-6.27243e-24
9.3535e-20
-8.56019e-24
-1.54181e-24
9.35458e-20
8.73708e-24
-1.17568e-23
9.35396e-20
-1.23701e-23
-3.59394e-24
9.35541e-20
1.88832e-23
-1.25654e-23
9.35413e-20
-2.72576e-24
3.04449e-24
9.35625e-20
1.73598e-23
-2.23857e-23
9.35463e-20
-7.18424e-24
3.06986e-24
9.35722e-20
2.07559e-23
-2.19106e-23
9.35453e-20
-7.61082e-24
1.33385e-23
9.35782e-20
1.56762e-23
-3.51788e-23
9.35433e-20
-2.29558e-23
5.32249e-24
9.35808e-20
1.18832e-23