/*--------------------------------*- C++ -*----------------------------------*\
| =========                 |                                                 |
| \\      /  F ield         | OpenFOAM: The Open Source CFD Toolbox           |
|  \\    /   O peration     | Version:  2412                                  |
|   \\  /    A nd           | Website:  www.openfoam.com                      |
|    \\/     M anipulation  |                                                 |
\*---------------------------------------------------------------------------*/
FoamFile
{
    version     2.0;
    format      ascii;
    arch        "LSB;label=32;scalar=64";
    class       volVectorField;
    location    "1e-05";
    object      U;
}
// * * * * * * * * * * * * * * * * * * * * * * * * * * * * * * * * * * * * * //

dimensions      [0 1 -1 0 0 0 0];

internalField   nonuniform List<vector> 
96800
(
(2.29988e-07 9.21246e-09 9.20725e-09)
(5.10375e-07 -1.1692e-08 -1.16952e-08)
(2.24678e-07 1.71421e-08 1.71346e-08)
(3.07912e-07 -2.13793e-08 -2.13765e-08)
(5.29375e-07 2.01966e-08 2.01975e-08)
(1.3744e-07 -1.44155e-08 -1.44157e-08)
(4.65331e-07 7.07356e-09 7.07547e-09)
(2.99698e-07 -2.07338e-09 -2.07154e-09)
(3.48095e-07 3.29676e-10 3.31171e-10)
(3.42369e-07 1.97592e-11 2.03196e-11)
(3.42347e-07 5.5826e-12 5.5576e-12)
(3.42614e-07 4.64367e-12 4.93775e-12)
(3.42642e-07 3.44683e-12 3.02133e-12)
(3.42751e-07 -1.29006e-12 -1.21407e-12)
(3.42729e-07 -7.13896e-14 -5.44243e-13)
(3.42741e-07 -4.98625e-12 -5.29732e-12)
(3.42716e-07 -1.97419e-12 -2.27745e-12)
(3.42725e-07 -5.53451e-12 -5.88128e-12)
(3.42713e-07 -3.53888e-12 -3.13146e-12)
(3.42707e-07 -6.67091e-12 -6.32353e-12)
(3.42708e-07 -4.17951e-12 -3.84688e-12)
(3.42711e-07 -5.61099e-12 -5.31341e-12)
(3.42736e-07 -5.34197e-12 -4.20432e-12)
(3.4276e-07 -6.07409e-12 -5.18663e-12)
(3.42802e-07 -5.40483e-12 -4.34423e-12)
(3.42823e-07 -4.56041e-12 -3.67621e-12)
(3.42896e-07 -5.97031e-12 -4.37141e-12)
(3.42934e-07 -3.00668e-12 -1.8435e-12)
(3.43023e-07 -5.2512e-12 -4.61743e-12)
(3.43027e-07 6.10019e-13 3.80569e-13)
(3.43133e-07 -5.66723e-12 -4.81757e-12)
(3.43149e-07 2.85939e-12 3.39604e-12)
(3.43277e-07 -6.33354e-12 -6.02714e-12)
(3.43258e-07 5.95498e-12 6.05361e-12)
(3.43387e-07 -9.4515e-12 -8.68054e-12)
(3.43367e-07 9.37567e-12 9.72472e-12)
(3.43516e-07 -1.16806e-11 -1.07911e-11)
(3.43443e-07 1.29621e-11 1.34156e-11)
(3.43587e-07 -1.5802e-11 -1.45155e-11)
(3.43521e-07 1.56103e-11 1.53675e-11)
(3.43628e-07 -2.05807e-11 -2.00463e-11)
(3.43624e-07 1.22909e-11 1.19534e-11)
(3.43574e-07 -2.04137e-11 -1.99719e-11)
(3.43978e-07 -5.82921e-12 -6.59599e-12)
(3.43181e-07 8.47208e-12 8.87156e-12)
(3.44592e-07 -5.42522e-11 -5.47842e-11)
(3.4322e-07 5.25146e-11 5.17487e-11)
(3.44397e-07 -8.3379e-11 -8.42821e-11)
(3.44352e-07 5.79396e-11 5.71346e-11)
(3.43573e-07 -8.14168e-12 -9.00343e-12)
(4.94235e-07 -7.76099e-09 8.83231e-08)
(1.01819e-06 -8.82092e-09 -2.55764e-08)
(5.33029e-07 3.17509e-08 1.77474e-08)
(6.15842e-07 -5.15504e-08 -2.48776e-08)
(1.10182e-06 5.46958e-08 3.01275e-08)
(3.21144e-07 -3.73259e-08 -2.52928e-08)
(9.55277e-07 1.69921e-08 1.40935e-08)
(6.4024e-07 -4.29673e-09 -4.47471e-09)
(7.31073e-07 4.81919e-10 8.33215e-10)
(7.20703e-07 5.19093e-11 4.39631e-11)
(7.20654e-07 1.68157e-11 3.94048e-11)
(7.21171e-07 1.88575e-12 8.0865e-12)
(7.21232e-07 5.02944e-12 1.70994e-11)
(7.2145e-07 -1.03671e-11 -1.31313e-11)
(7.21412e-07 -5.8003e-13 -1.61457e-12)
(7.21438e-07 -1.48407e-11 -2.90297e-11)
(7.21388e-07 -3.61604e-12 -8.65259e-12)
(7.21408e-07 -1.48424e-11 -3.18559e-11)
(7.21379e-07 -6.50501e-12 -1.33962e-11)
(7.21363e-07 -1.66346e-11 -3.6412e-11)
(7.21355e-07 -8.83392e-12 -1.62481e-11)
(7.21355e-07 -1.67055e-11 -3.5519e-11)
(7.2139e-07 -1.50606e-11 -2.07027e-11)
(7.21415e-07 -2.2699e-11 -3.9009e-11)
(7.2148e-07 -1.71198e-11 -2.46447e-11)
(7.21497e-07 -2.22395e-11 -3.53657e-11)
(7.21617e-07 -2.18403e-11 -2.59539e-11)
(7.2166e-07 -2.00435e-11 -2.95313e-11)
(7.21813e-07 -1.78204e-11 -2.62475e-11)
(7.2179e-07 -1.09118e-11 -2.2573e-11)
(7.21978e-07 -2.00937e-11 -2.56897e-11)
(7.21973e-07 -7.73244e-12 -1.27497e-11)
(7.22204e-07 -2.22952e-11 -2.42954e-11)
(7.22133e-07 -8.73392e-13 -6.32294e-12)
(7.22367e-07 -2.77869e-11 -2.48512e-11)
(7.22292e-07 3.63039e-12 4.41983e-12)
(7.2257e-07 -3.07197e-11 -3.00802e-11)
(7.22392e-07 1.13614e-11 1.4356e-11)
(7.22664e-07 -3.58192e-11 -3.78848e-11)
(7.22504e-07 1.02365e-11 2.18022e-11)
(7.22711e-07 -4.79436e-11 -4.4904e-11)
(7.22674e-07 -6.7091e-12 2.46865e-11)
(7.22582e-07 -5.52684e-11 -3.91595e-11)
(7.23343e-07 -6.06095e-11 2.83735e-12)
(7.218e-07 -7.78523e-13 1.9838e-11)
(7.2456e-07 -2.00136e-10 -6.03671e-11)
(7.21783e-07 9.92713e-11 7.66168e-11)
(7.24319e-07 -2.34482e-10 -8.09355e-11)
(7.23978e-07 6.96557e-11 1.03484e-10)
(7.22782e-07 1.45521e-10 -7.69404e-11)
(6.57937e-07 -5.62465e-08 1.05015e-07)
(1.32423e-06 1.51118e-08 -2.78434e-08)
(7.7142e-07 1.77362e-08 1.14734e-08)
(7.69836e-07 -5.93047e-08 -1.77146e-08)
(1.48445e-06 7.98071e-08 3.2497e-08)
(4.53803e-07 -6.06574e-08 -3.05963e-08)
(1.24767e-06 2.95915e-08 1.83709e-08)
(8.70413e-07 -7.6127e-09 -5.9222e-09)
(9.7423e-07 9.02671e-10 1.00395e-09)
(9.63635e-07 1.0223e-10 6.43046e-11)
(9.63588e-07 5.01822e-11 5.28281e-11)
(9.64209e-07 1.15432e-12 5.71134e-12)
(9.64289e-07 1.23066e-11 1.65856e-11)
(9.64564e-07 -2.6818e-11 -2.23837e-11)
(9.64504e-07 -7.7653e-12 -9.9179e-12)
(9.64507e-07 -3.88215e-11 -4.5876e-11)
(9.6441e-07 -1.79035e-11 -1.92888e-11)
(9.64403e-07 -3.97519e-11 -4.93008e-11)
(9.64321e-07 -2.53826e-11 -2.58231e-11)
(9.64248e-07 -4.34165e-11 -5.53818e-11)
(9.64185e-07 -2.93516e-11 -2.87567e-11)
(9.64135e-07 -4.20526e-11 -5.31231e-11)
(9.64129e-07 -3.97488e-11 -3.27894e-11)
(9.64098e-07 -5.25563e-11 -5.54264e-11)
(9.6413e-07 -4.05792e-11 -3.6232e-11)
(9.64101e-07 -4.95538e-11 -4.71183e-11)
(9.64209e-07 -4.79284e-11 -3.58277e-11)
(9.64207e-07 -4.55038e-11 -3.8256e-11)
(9.64362e-07 -3.63527e-11 -3.46046e-11)
(9.64283e-07 -2.75159e-11 -2.95954e-11)
(9.64491e-07 -3.49756e-11 -2.95604e-11)
(9.64438e-07 -2.33078e-11 -1.59863e-11)
(9.64708e-07 -3.03692e-11 -2.7392e-11)
(9.64584e-07 -1.14978e-11 -1.04514e-11)
(9.64872e-07 -3.1738e-11 -2.52236e-11)
(9.64753e-07 -5.92301e-12 3.42457e-12)
(9.65107e-07 -2.96103e-11 -3.17412e-11)
(9.64855e-07 8.98711e-13 1.41803e-11)
(9.65212e-07 -3.36313e-11 -3.66194e-11)
(9.64989e-07 -1.23822e-11 2.24381e-11)
(9.65278e-07 -5.44428e-11 -4.55078e-11)
(9.65215e-07 -6.17477e-11 2.4878e-11)
(9.65141e-07 -7.28578e-11 -3.78797e-11)
(9.66063e-07 -1.63475e-10 -3.7337e-12)
(9.64178e-07 -2.8708e-12 3.35427e-11)
(9.67739e-07 -3.78213e-10 -7.44176e-11)
(9.64084e-07 8.69289e-11 7.47159e-11)
(9.67726e-07 -3.25704e-10 -7.91714e-11)
(9.66967e-07 -4.77669e-11 6.69104e-11)
(9.65585e-07 4.74684e-10 -7.55221e-11)
(7.77209e-07 -8.91934e-08 1.00907e-07)
(1.51076e-06 3.74547e-08 -2.88747e-08)
(9.60338e-07 1.60203e-09 1.36967e-08)
(8.63364e-07 -5.97127e-08 -1.53445e-08)
(1.73947e-06 9.22681e-08 3.27585e-08)
(5.58317e-07 -7.34901e-08 -3.2245e-08)
(1.44112e-06 3.58425e-08 1.9513e-08)
(1.03043e-06 -9.17265e-09 -6.10859e-09)
(1.14154e-06 1.00013e-09 1.06502e-09)
(1.13056e-06 1.24102e-10 7.33222e-11)
(1.13056e-06 5.84265e-11 5.54141e-11)
(1.13124e-06 -3.97887e-13 5.19395e-12)
(1.13133e-06 1.00729e-11 1.52695e-11)
(1.13163e-06 -3.37807e-11 -2.34102e-11)
(1.13155e-06 -1.3895e-11 -1.35861e-11)
(1.13153e-06 -4.70918e-11 -4.88131e-11)
(1.1314e-06 -2.78933e-11 -2.46347e-11)
(1.13138e-06 -4.96961e-11 -5.29058e-11)
(1.13126e-06 -3.70473e-11 -3.22839e-11)
(1.13114e-06 -5.34566e-11 -5.86004e-11)
(1.13104e-06 -4.14729e-11 -3.41774e-11)
(1.13095e-06 -5.15953e-11 -5.49552e-11)
(1.13091e-06 -5.42364e-11 -3.57913e-11)
(1.13083e-06 -6.4552e-11 -5.49287e-11)
(1.13083e-06 -5.4126e-11 -3.60518e-11)
(1.13076e-06 -6.00958e-11 -4.36628e-11)
(1.13084e-06 -6.27939e-11 -3.22013e-11)
(1.13079e-06 -5.61855e-11 -3.47548e-11)
(1.13093e-06 -4.63489e-11 -3.24489e-11)
(1.1308e-06 -3.49769e-11 -2.8668e-11)
(1.131e-06 -4.07771e-11 -2.62881e-11)
(1.1309e-06 -3.5326e-11 -1.55247e-11)
(1.13117e-06 -3.13279e-11 -2.97168e-11)
(1.131e-06 -1.96855e-11 -7.66725e-12)
(1.1313e-06 -3.43543e-11 -2.62978e-11)
(1.13114e-06 -1.48492e-11 7.24217e-12)
(1.13152e-06 -3.00006e-11 -3.1713e-11)
(1.13121e-06 -1.05063e-11 1.6136e-11)
(1.13161e-06 -3.15754e-11 -3.39805e-11)
(1.13133e-06 -3.24396e-11 2.27895e-11)
(1.13166e-06 -5.36443e-11 -4.39327e-11)
(1.13156e-06 -9.72039e-11 2.47908e-11)
(1.13149e-06 -7.64139e-11 -3.56637e-11)
(1.13249e-06 -2.22116e-10 -6.7551e-12)
(1.13041e-06 3.9889e-12 3.80921e-11)
(1.13442e-06 -4.737e-10 -8.09791e-11)
(1.13019e-06 7.727e-11 7.83948e-11)
(1.13455e-06 -3.44475e-10 -7.83643e-11)
(1.13335e-06 -1.12295e-10 5.5583e-11)
(1.13198e-06 6.90283e-10 -6.38699e-11)
(8.70728e-07 -1.02608e-07 9.68451e-08)
(1.62405e-06 4.90239e-08 -3.20376e-08)
(1.10915e-06 -8.8907e-09 1.15188e-08)
(9.25436e-07 -5.61387e-08 -1.37664e-08)
(1.91258e-06 9.57775e-08 3.29461e-08)
(6.39634e-07 -7.87086e-08 -3.29677e-08)
(1.57461e-06 3.8482e-08 2.00871e-08)
(1.14392e-06 -9.87756e-09 -6.23676e-09)
(1.25997e-06 9.66345e-10 1.11256e-09)
(1.24847e-06 1.26362e-10 7.35074e-11)
(1.24854e-06 5.74357e-11 5.58106e-11)
(1.24925e-06 -2.18875e-12 5.25595e-12)
(1.24934e-06 5.09083e-12 1.50146e-11)
(1.24965e-06 -3.93024e-11 -2.16186e-11)
(1.24956e-06 -1.95692e-11 -1.55969e-11)
(1.24954e-06 -5.17878e-11 -4.93313e-11)
(1.24939e-06 -3.61989e-11 -2.67684e-11)
(1.24936e-06 -5.56452e-11 -5.33836e-11)
(1.24921e-06 -4.47833e-11 -3.5548e-11)
(1.24908e-06 -5.82086e-11 -5.98483e-11)
(1.24895e-06 -4.89162e-11 -3.62811e-11)
(1.24884e-06 -5.56868e-11 -5.33412e-11)
(1.24878e-06 -6.15132e-11 -3.5661e-11)
(1.24866e-06 -6.90718e-11 -5.13705e-11)
(1.24864e-06 -6.07689e-11 -3.36134e-11)
(1.24853e-06 -6.46176e-11 -4.11865e-11)
(1.2486e-06 -6.90027e-11 -2.89103e-11)
(1.24851e-06 -6.07871e-11 -3.37736e-11)
(1.24863e-06 -4.95096e-11 -3.53956e-11)
(1.24846e-06 -3.74299e-11 -3.16222e-11)
(1.24865e-06 -4.29681e-11 -3.17082e-11)
(1.24851e-06 -3.7652e-11 -1.94663e-11)
(1.24878e-06 -3.00839e-11 -3.54974e-11)
(1.24856e-06 -1.99215e-11 -6.42328e-12)
(1.24887e-06 -3.329e-11 -3.14975e-11)
(1.24866e-06 -1.61671e-11 7.57645e-12)
(1.24906e-06 -2.46173e-11 -3.68924e-11)
(1.24869e-06 -1.23101e-11 1.63592e-11)
(1.24911e-06 -2.62322e-11 -3.97504e-11)
(1.24878e-06 -4.05705e-11 2.19911e-11)
(1.24914e-06 -4.73788e-11 -4.2963e-11)
(1.24901e-06 -1.12822e-10 2.3168e-11)
(1.24893e-06 -7.32616e-11 -3.42846e-11)
(1.24997e-06 -2.4535e-10 -9.79388e-12)
(1.24775e-06 1.24383e-11 4.20682e-11)
(1.25202e-06 -5.05843e-10 -8.54959e-11)
(1.2474e-06 6.94597e-11 8.31367e-11)
(1.25223e-06 -3.29804e-10 -7.72157e-11)
(1.25064e-06 -1.25568e-10 4.86907e-11)
(1.24941e-06 7.90491e-10 -5.26344e-11)
(9.47414e-07 -1.09377e-07 9.46084e-08)
(1.69172e-06 5.25042e-08 -3.49601e-08)
(1.22426e-06 -1.33748e-08 8.44414e-09)
(9.69702e-07 -5.20984e-08 -1.25233e-08)
(2.03039e-06 9.48158e-08 3.31013e-08)
(7.01689e-07 -7.95042e-08 -3.32808e-08)
(1.66868e-06 3.88811e-08 2.04747e-08)
(1.22469e-06 -1.00995e-08 -6.37833e-09)
(1.34463e-06 8.75255e-10 1.15131e-09)
(1.33252e-06 1.15348e-10 7.23088e-11)
(1.33265e-06 5.16889e-11 5.51047e-11)
(1.33339e-06 -3.67489e-12 4.86861e-12)
(1.33347e-06 -5.04548e-13 1.54145e-11)
(1.3338e-06 -4.36704e-11 -2.17278e-11)
(1.3337e-06 -2.37939e-11 -1.62859e-11)
(1.33368e-06 -5.40978e-11 -4.73853e-11)
(1.33352e-06 -4.21457e-11 -2.49893e-11)
(1.33349e-06 -5.89771e-11 -5.07055e-11)
(1.33334e-06 -4.86877e-11 -3.46894e-11)
(1.33319e-06 -5.97274e-11 -5.84962e-11)
(1.33306e-06 -5.20723e-11 -3.5034e-11)
(1.33293e-06 -5.66711e-11 -5.02066e-11)
(1.33286e-06 -6.34379e-11 -3.38112e-11)
(1.33273e-06 -6.84253e-11 -4.88252e-11)
(1.33269e-06 -6.13626e-11 -3.40433e-11)
(1.33256e-06 -6.30423e-11 -4.22594e-11)
(1.33261e-06 -6.76059e-11 -3.08596e-11)
(1.33249e-06 -5.86903e-11 -3.8461e-11)
(1.33261e-06 -4.47403e-11 -4.08783e-11)
(1.33241e-06 -3.34718e-11 -3.42989e-11)
(1.3326e-06 -3.82845e-11 -3.88118e-11)
(1.33242e-06 -3.3529e-11 -2.38674e-11)
(1.33269e-06 -2.22646e-11 -3.41159e-11)
(1.33244e-06 -1.48366e-11 -6.4401e-12)
(1.33275e-06 -2.45689e-11 -3.4331e-11)
(1.3325e-06 -1.24191e-11 6.75601e-12)
(1.33291e-06 -1.25468e-11 -3.61274e-11)
(1.3325e-06 -8.54587e-12 1.56034e-11)
(1.33293e-06 -1.7064e-11 -4.28105e-11)
(1.33257e-06 -4.14327e-11 2.13931e-11)
(1.33293e-06 -3.90879e-11 -4.17926e-11)
(1.33277e-06 -1.18478e-10 2.1386e-11)
(1.33269e-06 -6.7296e-11 -3.30845e-11)
(1.33373e-06 -2.51391e-10 -1.24307e-11)
(1.33142e-06 1.81942e-11 4.40338e-11)
(1.33583e-06 -5.06788e-10 -8.86793e-11)
(1.33095e-06 5.84639e-11 8.49174e-11)
(1.33608e-06 -3.08467e-10 -7.61099e-11)
(1.33419e-06 -1.14042e-10 4.33743e-11)
(1.33315e-06 8.27562e-10 -4.47233e-11)
(1.01159e-06 -1.12102e-07 9.42696e-08)
(1.73124e-06 5.1356e-08 -3.6099e-08)
(1.31022e-06 -1.48015e-08 6.97524e-09)
(1.00296e-06 -4.85649e-08 -1.13559e-08)
(2.11024e-06 9.17107e-08 3.31138e-08)
(7.47978e-07 -7.78722e-08 -3.34732e-08)
(1.73574e-06 3.8042e-08 2.07739e-08)
(1.2819e-06 -1.00479e-08 -6.5336e-09)
(1.40519e-06 7.64376e-10 1.18139e-09)
(1.39245e-06 1.00649e-10 6.88895e-11)
(1.39262e-06 4.46555e-11 5.39391e-11)
(1.39337e-06 -4.09797e-12 4.54017e-12)
(1.39346e-06 -5.5217e-12 1.56167e-11)
(1.3938e-06 -4.61735e-11 -2.26906e-11)
(1.3937e-06 -2.70859e-11 -1.66039e-11)
(1.39368e-06 -5.51799e-11 -4.53377e-11)
(1.39352e-06 -4.6786e-11 -2.37537e-11)
(1.39349e-06 -6.09783e-11 -4.82592e-11)
(1.39333e-06 -5.12522e-11 -3.43339e-11)
(1.39319e-06 -5.99564e-11 -5.61269e-11)
(1.39305e-06 -5.3311e-11 -3.33661e-11)
(1.39293e-06 -5.65556e-11 -5.00513e-11)
(1.39285e-06 -6.24074e-11 -3.45375e-11)
(1.39271e-06 -6.5748e-11 -5.00341e-11)
(1.39267e-06 -5.7738e-11 -3.87717e-11)
(1.39252e-06 -5.87177e-11 -4.65125e-11)
(1.39257e-06 -6.17112e-11 -3.72132e-11)
(1.39244e-06 -5.2872e-11 -4.37515e-11)
(1.39255e-06 -3.52972e-11 -4.11083e-11)
(1.39233e-06 -2.65687e-11 -3.48936e-11)
(1.39252e-06 -2.92078e-11 -3.99597e-11)
(1.39232e-06 -2.7445e-11 -2.5643e-11)
(1.39259e-06 -1.08027e-11 -3.08809e-11)
(1.39232e-06 -7.70481e-12 -7.00541e-12)
(1.39263e-06 -1.2379e-11 -3.17721e-11)
(1.39236e-06 -6.7709e-12 6.69606e-12)
(1.39278e-06 -9.81865e-13 -3.24322e-11)
(1.39234e-06 -3.35611e-12 1.44201e-11)
(1.39278e-06 -7.6942e-12 -3.81159e-11)
(1.39239e-06 -4.03943e-11 2.16443e-11)
(1.39275e-06 -3.12577e-11 -4.03948e-11)
(1.39257e-06 -1.18891e-10 2.03138e-11)
(1.39247e-06 -6.0397e-11 -3.14262e-11)
(1.39352e-06 -2.48692e-10 -1.4211e-11)
(1.39114e-06 2.09975e-11 4.50729e-11)
(1.39562e-06 -4.92569e-10 -9.01109e-11)
(1.39056e-06 4.70496e-11 8.48722e-11)
(1.39588e-06 -2.83985e-10 -7.4462e-11)
(1.39377e-06 -9.36042e-11 4.00509e-11)
(1.39292e-06 8.29049e-10 -4.10804e-11)
(1.06552e-06 -1.12006e-07 9.47754e-08)
(1.7535e-06 4.78499e-08 -3.60861e-08)
(1.37244e-06 -1.5184e-08 6.42789e-09)
(1.02889e-06 -4.54666e-08 -1.02673e-08)
(2.16399e-06 8.75033e-08 3.29864e-08)
(7.81663e-07 -7.48268e-08 -3.36186e-08)
(1.78386e-06 3.65233e-08 2.1024e-08)
(1.32203e-06 -9.80584e-09 -6.6959e-09)
(1.44837e-06 6.53647e-10 1.21007e-09)
(1.43497e-06 8.62739e-11 6.53077e-11)
(1.43518e-06 3.80699e-11 5.26639e-11)
(1.43595e-06 -4.08539e-12 4.82829e-12)
(1.43604e-06 -9.64951e-12 1.57661e-11)
(1.43638e-06 -4.72421e-11 -2.265e-11)
(1.43628e-06 -2.9134e-11 -1.69537e-11)
(1.43627e-06 -5.61451e-11 -4.5665e-11)
(1.43611e-06 -4.95634e-11 -2.48047e-11)
(1.43609e-06 -6.25952e-11 -4.84819e-11)
(1.43593e-06 -5.20267e-11 -3.63121e-11)
(1.4358e-06 -5.95511e-11 -5.62869e-11)
(1.43565e-06 -5.29796e-11 -3.47958e-11)
(1.43553e-06 -5.55894e-11 -5.24854e-11)
(1.43546e-06 -5.95675e-11 -3.79202e-11)
(1.43531e-06 -6.21805e-11 -5.39896e-11)
(1.43527e-06 -5.18688e-11 -4.19523e-11)
(1.43512e-06 -5.35164e-11 -4.97077e-11)
(1.43517e-06 -5.43598e-11 -4.20121e-11)
(1.43503e-06 -4.70023e-11 -4.43961e-11)
(1.43515e-06 -2.57252e-11 -3.92678e-11)
(1.43492e-06 -1.99624e-11 -3.46088e-11)
(1.43511e-06 -1.93976e-11 -3.87739e-11)
(1.43491e-06 -2.18869e-11 -2.4421e-11)
(1.43518e-06 -9.32862e-13 -3.00907e-11)
(1.4349e-06 -1.18143e-12 -7.50975e-12)
(1.43521e-06 -1.49739e-12 -2.73906e-11)
(1.43493e-06 -1.93439e-12 6.98443e-12)
(1.43534e-06 8.96748e-12 -3.13393e-11)
(1.4349e-06 3.91933e-13 1.36847e-11)
(1.43534e-06 3.37803e-13 -3.46063e-11)
(1.43493e-06 -3.90421e-11 2.23061e-11)
(1.4353e-06 -2.41699e-11 -3.9385e-11)
(1.43509e-06 -1.17016e-10 1.98208e-11)
(1.43498e-06 -5.32883e-11 -2.95261e-11)
(1.43602e-06 -2.41884e-10 -1.54186e-11)
(1.43358e-06 2.21208e-11 4.57234e-11)
(1.43811e-06 -4.69009e-10 -9.04997e-11)
(1.43293e-06 3.81237e-11 8.35394e-11)
(1.43835e-06 -2.56265e-10 -7.29977e-11)
(1.43609e-06 -7.22589e-11 3.85584e-11)
(1.43541e-06 8.13062e-10 -4.0222e-11)
(1.11051e-06 -1.09775e-07 9.54821e-08)
(1.76571e-06 4.34747e-08 -3.5411e-08)
(1.41612e-06 -1.5229e-08 6.28869e-09)
(1.04959e-06 -4.25301e-08 -9.28539e-09)
(2.19982e-06 8.26257e-08 3.2772e-08)
(8.05539e-07 -7.09269e-08 -3.37438e-08)
(1.81855e-06 3.46712e-08 2.12481e-08)
(1.3498e-06 -9.40854e-09 -6.85892e-09)
(1.47897e-06 5.53592e-10 1.2385e-09)
(1.46494e-06 7.36486e-11 6.19001e-11)
(1.46518e-06 3.24697e-11 5.12465e-11)
(1.46595e-06 -3.43294e-12 5.58477e-12)
(1.46604e-06 -1.31015e-11 1.6042e-11)
(1.46639e-06 -4.75937e-11 -2.26003e-11)
(1.4663e-06 -3.02623e-11 -1.71788e-11)
(1.46629e-06 -5.63586e-11 -4.73219e-11)
(1.46613e-06 -5.13741e-11 -2.55002e-11)
(1.46611e-06 -6.36594e-11 -4.90369e-11)
(1.46596e-06 -5.13174e-11 -3.71978e-11)
(1.46583e-06 -5.94324e-11 -5.77831e-11)
(1.46569e-06 -5.12485e-11 -3.65484e-11)
(1.46557e-06 -5.39876e-11 -5.40406e-11)
(1.4655e-06 -5.53238e-11 -4.03034e-11)
(1.46536e-06 -5.86792e-11 -5.7031e-11)
(1.46532e-06 -4.56084e-11 -4.24713e-11)
(1.46517e-06 -4.89304e-11 -5.00444e-11)
(1.46522e-06 -4.73324e-11 -4.2329e-11)
(1.46508e-06 -4.23057e-11 -4.3035e-11)
(1.4652e-06 -1.78773e-11 -3.80049e-11)
(1.46497e-06 -1.50762e-11 -3.39061e-11)
(1.46517e-06 -1.08417e-11 -3.68944e-11)
(1.46496e-06 -1.81364e-11 -2.23227e-11)
(1.46524e-06 8.24661e-12 -2.95688e-11)
(1.46495e-06 3.5847e-12 -7.86664e-12)
(1.46527e-06 7.52007e-12 -2.53815e-11)
(1.46498e-06 1.11554e-12 7.56398e-12)
(1.46541e-06 1.77192e-11 -3.07316e-11)
(1.46495e-06 2.20482e-12 1.33431e-11)
(1.4654e-06 7.72118e-12 -3.37084e-11)
(1.46498e-06 -3.81551e-11 2.30754e-11)
(1.46535e-06 -1.72705e-11 -3.87435e-11)
(1.46513e-06 -1.14478e-10 1.96668e-11)
(1.465e-06 -4.60094e-11 -2.76375e-11)
(1.46604e-06 -2.33057e-10 -1.61037e-11)
(1.46356e-06 2.39791e-11 4.55674e-11)
(1.4681e-06 -4.39702e-10 -9.0401e-11)
(1.46284e-06 3.16164e-11 8.19837e-11)
(1.46832e-06 -2.26188e-10 -7.20886e-11)
(1.46596e-06 -5.38054e-11 3.80456e-11)
(1.46541e-06 7.87732e-10 -4.11359e-11)
(1.14747e-06 -1.0578e-07 9.61253e-08)
(1.77227e-06 3.87958e-08 -3.45426e-08)
(1.44587e-06 -1.49657e-08 6.24204e-09)
(1.06632e-06 -3.95999e-08 -8.40938e-09)
(2.22342e-06 7.72798e-08 3.25124e-08)
(8.21988e-07 -6.65017e-08 -3.38561e-08)
(1.84363e-06 3.26529e-08 2.14585e-08)
(1.3687e-06 -8.89036e-09 -7.01571e-09)
(1.50052e-06 4.67637e-10 1.26705e-09)
(1.48588e-06 6.4092e-11 5.86998e-11)
(1.48615e-06 2.79939e-11 4.95939e-11)
(1.48692e-06 -1.39192e-12 6.1259e-12)
(1.48701e-06 -1.61466e-11 1.65761e-11)
(1.48736e-06 -4.68555e-11 -2.27601e-11)
(1.48727e-06 -3.07864e-11 -1.71783e-11)
(1.48726e-06 -5.50478e-11 -5.02521e-11)
(1.48711e-06 -5.26732e-11 -2.58979e-11)
(1.48709e-06 -6.37859e-11 -4.9701e-11)
(1.48694e-06 -5.0275e-11 -3.74889e-11)
(1.48681e-06 -5.89816e-11 -5.93818e-11)
(1.48668e-06 -4.906e-11 -3.70722e-11)
(1.48656e-06 -5.20809e-11 -5.44505e-11)
(1.48649e-06 -5.06228e-11 -4.06344e-11)
(1.48636e-06 -5.61046e-11 -5.70681e-11)
(1.48632e-06 -3.98531e-11 -4.2369e-11)
(1.48617e-06 -4.57007e-11 -4.9589e-11)
(1.48623e-06 -4.10403e-11 -4.2116e-11)
(1.48609e-06 -3.93985e-11 -4.16409e-11)
(1.48622e-06 -1.10308e-11 -3.74738e-11)
(1.48599e-06 -1.23276e-11 -3.3268e-11)
(1.48619e-06 -3.8494e-12 -3.46162e-11)
(1.48599e-06 -1.61906e-11 -2.09746e-11)
(1.48628e-06 1.68438e-11 -2.93972e-11)
(1.48599e-06 6.19891e-12 -8.10647e-12)
(1.48632e-06 1.51164e-11 -2.50153e-11)
(1.48603e-06 2.2969e-12 8.04837e-12)
(1.48646e-06 2.46497e-11 -3.06185e-11)
(1.486e-06 2.70742e-12 1.32608e-11)
(1.48646e-06 1.39132e-11 -3.34643e-11)
(1.48603e-06 -3.79457e-11 2.3697e-11)
(1.4864e-06 -1.06705e-11 -3.8271e-11)
(1.48617e-06 -1.11964e-10 1.97562e-11)
(1.48603e-06 -3.86746e-11 -2.58451e-11)
(1.48707e-06 -2.22704e-10 -1.63898e-11)
(1.48455e-06 2.69233e-11 4.50981e-11)
(1.4891e-06 -4.06759e-10 -9.00331e-11)
(1.48379e-06 2.71393e-11 8.06345e-11)
(1.4893e-06 -1.9466e-10 -7.16898e-11)
(1.48687e-06 -3.9679e-11 3.7859e-11)
(1.48641e-06 7.55879e-10 -4.24108e-11)
(1.17721e-06 -1.00449e-07 9.66491e-08)
(1.77595e-06 3.43349e-08 -3.36825e-08)
(1.46535e-06 -1.43422e-08 6.19225e-09)
(1.07993e-06 -3.66121e-08 -7.64119e-09)
(2.23874e-06 7.16105e-08 3.22324e-08)
(8.32958e-07 -6.17534e-08 -3.39566e-08)
(1.86186e-06 3.05311e-08 2.16611e-08)
(1.38128e-06 -8.28179e-09 -7.15985e-09)
(1.51558e-06 3.97325e-10 1.29778e-09)
(1.50037e-06 5.8226e-11 5.55772e-11)
(1.50066e-06 2.49186e-11 4.7963e-11)
(1.50143e-06 1.00675e-12 6.12387e-12)
(1.50152e-06 -1.89143e-11 1.76966e-11)
(1.50188e-06 -4.51684e-11 -2.28607e-11)
(1.50178e-06 -3.10857e-11 -1.63581e-11)
(1.50178e-06 -5.32124e-11 -5.25955e-11)
(1.50162e-06 -5.3167e-11 -2.5904e-11)
(1.50161e-06 -6.38651e-11 -5.03891e-11)
(1.50146e-06 -4.91384e-11 -3.7586e-11)
(1.50134e-06 -5.76767e-11 -6.04852e-11)
(1.50121e-06 -4.67006e-11 -3.71601e-11)
(1.50109e-06 -5.02771e-11 -5.46104e-11)
(1.50103e-06 -4.62338e-11 -4.05097e-11)
(1.50089e-06 -5.4273e-11 -5.66068e-11)
(1.50086e-06 -3.47553e-11 -4.20201e-11)
(1.50072e-06 -4.35738e-11 -4.88249e-11)
(1.50078e-06 -3.52937e-11 -4.16916e-11)
(1.50065e-06 -3.82188e-11 -4.08999e-11)
(1.50078e-06 -5.06231e-12 -3.73123e-11)
(1.50055e-06 -1.11026e-11 -3.26914e-11)
(1.50076e-06 1.49123e-12 -3.33763e-11)
(1.50057e-06 -1.55808e-11 -1.99726e-11)
(1.50086e-06 2.33866e-11 -2.96739e-11)
(1.50058e-06 6.78247e-12 -8.05578e-12)
(1.50091e-06 2.11076e-11 -2.50863e-11)
(1.50062e-06 1.92223e-12 8.62229e-12)
(1.50106e-06 3.01976e-11 -3.08441e-11)
(1.50061e-06 2.02392e-12 1.3304e-11)
(1.50107e-06 1.8627e-11 -3.32757e-11)
(1.50064e-06 -3.84905e-11 2.41387e-11)
(1.501e-06 -4.60548e-12 -3.76961e-11)
(1.50078e-06 -1.09482e-10 2.00402e-11)
(1.50063e-06 -3.15253e-11 -2.36157e-11)
(1.50167e-06 -2.10639e-10 -1.63398e-11)
(1.49911e-06 2.93147e-11 4.5714e-11)
(1.50367e-06 -3.71807e-10 -8.96846e-11)
(1.49833e-06 2.3582e-11 7.97594e-11)
(1.50384e-06 -1.62618e-10 -7.16425e-11)
(1.50138e-06 -3.01177e-11 3.79756e-11)
(1.50099e-06 7.19203e-10 -4.3555e-11)
(1.20062e-06 -9.40639e-08 9.70712e-08)
(1.77827e-06 3.02718e-08 -3.31116e-08)
(1.4775e-06 -1.34818e-08 6.14798e-09)
(1.09103e-06 -3.35575e-08 -6.98297e-09)
(2.24849e-06 6.57349e-08 3.19463e-08)
(8.39986e-07 -5.68134e-08 -3.40476e-08)
(1.87518e-06 2.83251e-08 2.18573e-08)
(1.38943e-06 -7.60739e-09 -7.28934e-09)
(1.52604e-06 3.44849e-10 1.33043e-09)
(1.51029e-06 5.61312e-11 5.25289e-11)
(1.5106e-06 2.36384e-11 4.64074e-11)
(1.51138e-06 4.01298e-12 6.0347e-12)
(1.51147e-06 -2.12076e-11 1.92568e-11)
(1.51183e-06 -4.33732e-11 -2.26905e-11)
(1.51173e-06 -3.14077e-11 -1.52306e-11)
(1.51173e-06 -5.13444e-11 -5.30417e-11)
(1.51157e-06 -5.31092e-11 -2.58685e-11)
(1.51156e-06 -6.36281e-11 -5.10947e-11)
(1.51141e-06 -4.75003e-11 -3.75656e-11)
(1.51129e-06 -5.6465e-11 -6.07318e-11)
(1.51116e-06 -4.41917e-11 -3.73339e-11)
(1.51105e-06 -4.89542e-11 -5.46351e-11)
(1.51098e-06 -4.22074e-11 -4.04482e-11)
(1.51085e-06 -5.26801e-11 -5.63488e-11)
(1.51083e-06 -3.0155e-11 -4.15501e-11)
(1.51069e-06 -4.21985e-11 -4.81802e-11)
(1.51075e-06 -3.02612e-11 -4.10268e-11)
(1.51063e-06 -3.7617e-11 -4.02384e-11)
(1.51076e-06 -1.02825e-13 -3.73433e-11)
(1.51054e-06 -1.09735e-11 -3.19066e-11)
(1.51076e-06 5.4059e-12 -3.27855e-11)
(1.51057e-06 -1.61116e-11 -1.86733e-11)
(1.51087e-06 2.77779e-11 -3.00045e-11)
(1.51059e-06 5.96324e-12 -7.48162e-12)
(1.51093e-06 2.56344e-11 -2.52379e-11)
(1.51064e-06 2.6852e-13 9.50348e-12)
(1.51109e-06 3.45258e-11 -3.12955e-11)
(1.51064e-06 3.46091e-15 1.2554e-11)
(1.5111e-06 2.22563e-11 -3.30142e-11)
(1.51068e-06 -3.97114e-11 2.44385e-11)
(1.51104e-06 1.28122e-12 -3.81729e-11)
(1.51081e-06 -1.06936e-10 2.03593e-11)
(1.51066e-06 -2.41596e-11 -2.18755e-11)
(1.5117e-06 -1.97071e-10 -1.62259e-11)
(1.50912e-06 3.11665e-11 4.68976e-11)
(1.51367e-06 -3.3633e-10 -8.94609e-11)
(1.50832e-06 2.02533e-11 7.93997e-11)
(1.51382e-06 -1.3085e-10 -7.16758e-11)
(1.51135e-06 -2.49239e-11 3.86377e-11)
(1.51099e-06 6.78667e-10 -4.43884e-11)
(1.21858e-06 -8.68186e-08 9.74138e-08)
(1.78003e-06 2.66324e-08 -3.29549e-08)
(1.48457e-06 -1.25206e-08 6.09218e-09)
(1.10012e-06 -3.04356e-08 -6.42531e-09)
(2.25453e-06 5.973e-08 3.1659e-08)
(8.44253e-07 -5.17631e-08 -3.41306e-08)
(1.88499e-06 2.60389e-08 2.20464e-08)
(1.39452e-06 -6.89099e-09 -7.40418e-09)
(1.53326e-06 3.07814e-10 1.36188e-09)
(1.51703e-06 5.74218e-11 4.96735e-11)
(1.51735e-06 2.42908e-11 4.46783e-11)
(1.51813e-06 7.92316e-12 5.86715e-12)
(1.51821e-06 -2.26585e-11 2.01629e-11)
(1.51857e-06 -4.17042e-11 -2.26509e-11)
(1.51848e-06 -3.16021e-11 -1.48288e-11)
(1.51847e-06 -4.90972e-11 -5.25418e-11)
(1.51831e-06 -5.26358e-11 -2.61069e-11)
(1.51831e-06 -6.23528e-11 -5.16222e-11)
(1.51816e-06 -4.53535e-11 -3.77007e-11)
(1.51804e-06 -5.51522e-11 -6.0726e-11)
(1.51791e-06 -4.14634e-11 -3.76863e-11)
(1.5178e-06 -4.80045e-11 -5.48067e-11)
(1.51774e-06 -3.83614e-11 -4.07022e-11)
(1.51761e-06 -5.11792e-11 -5.60884e-11)
(1.51759e-06 -2.59277e-11 -4.11777e-11)
(1.51745e-06 -4.1382e-11 -4.76865e-11)
(1.51752e-06 -2.59109e-11 -4.04277e-11)
(1.5174e-06 -3.72939e-11 -3.93991e-11)
(1.51754e-06 4.06702e-12 -3.74152e-11)
(1.51732e-06 -1.16541e-11 -3.1194e-11)
(1.51754e-06 8.49309e-12 -3.21213e-11)
(1.51736e-06 -1.75184e-11 -1.7528e-11)
(1.51767e-06 3.10313e-11 -3.02095e-11)
(1.51739e-06 4.19314e-12 -6.70598e-12)
(1.51773e-06 2.89448e-11 -2.533e-11)
(1.51745e-06 -2.4631e-12 1.04721e-11)
(1.51791e-06 3.75226e-11 -3.17873e-11)
(1.51745e-06 -2.90078e-12 1.21701e-11)
(1.51793e-06 2.51483e-11 -3.26347e-11)
(1.5175e-06 -4.13514e-11 2.47285e-11)
(1.51787e-06 7.04627e-12 -3.90437e-11)
(1.51764e-06 -1.04329e-10 2.06422e-11)
(1.51748e-06 -1.60595e-11 -2.13131e-11)
(1.51852e-06 -1.83572e-10 -1.61521e-11)
(1.51592e-06 3.25686e-11 4.76908e-11)
(1.52048e-06 -3.01356e-10 -8.93347e-11)
(1.51511e-06 1.67196e-11 7.93712e-11)
(1.5206e-06 -9.9808e-11 -7.16789e-11)
(1.51814e-06 -2.37771e-11 3.91976e-11)
(1.5178e-06 6.35051e-10 -4.50558e-11)
(1.23204e-06 -7.88542e-08 9.76913e-08)
(1.78165e-06 2.33528e-08 -3.29371e-08)
(1.48826e-06 -1.15085e-08 6.01291e-09)
(1.10757e-06 -2.72462e-08 -5.95375e-09)
(2.25813e-06 5.36461e-08 3.13767e-08)
(8.46639e-07 -4.66485e-08 -3.421e-08)
(1.89229e-06 2.36744e-08 2.22268e-08)
(1.39753e-06 -6.15221e-09 -7.50591e-09)
(1.53821e-06 2.81878e-10 1.39053e-09)
(1.52155e-06 6.12453e-11 4.71126e-11)
(1.52188e-06 2.70034e-11 4.13233e-11)
(1.52266e-06 1.23108e-11 5.66584e-12)
(1.52274e-06 -2.30539e-11 2.05043e-11)
(1.5231e-06 -3.95527e-11 -2.29698e-11)
(1.52301e-06 -3.14451e-11 -1.48235e-11)
(1.523e-06 -4.66145e-11 -5.1918e-11)
(1.52284e-06 -5.10813e-11 -2.64511e-11)
(1.52284e-06 -6.04421e-11 -5.17491e-11)
(1.52269e-06 -4.27892e-11 -3.79577e-11)
(1.52257e-06 -5.35248e-11 -6.09963e-11)
(1.52244e-06 -3.82494e-11 -3.83218e-11)
(1.52233e-06 -4.71844e-11 -5.49775e-11)
(1.52227e-06 -3.44599e-11 -4.10709e-11)
(1.52214e-06 -4.99429e-11 -5.57056e-11)
(1.52212e-06 -2.19639e-11 -4.08991e-11)
(1.52199e-06 -4.09893e-11 -4.73736e-11)
(1.52206e-06 -2.18717e-11 -4.00346e-11)
(1.52195e-06 -3.71721e-11 -3.86039e-11)
(1.52209e-06 7.53614e-12 -3.74775e-11)
(1.52187e-06 -1.29383e-11 -3.0541e-11)
(1.5221e-06 1.13132e-11 -3.14585e-11)
(1.52192e-06 -1.94269e-11 -1.68389e-11)
(1.52224e-06 3.3758e-11 -3.03173e-11)
(1.52196e-06 1.71726e-12 -6.1981e-12)
(1.52231e-06 3.14088e-11 -2.53351e-11)
(1.52204e-06 -5.98926e-12 1.09576e-11)
(1.52249e-06 3.9592e-11 -3.22243e-11)
(1.52204e-06 -6.30773e-12 1.2709e-11)
(1.52252e-06 2.75892e-11 -3.2397e-11)
(1.5221e-06 -4.30693e-11 2.50252e-11)
(1.52246e-06 1.23694e-11 -3.92268e-11)
(1.52224e-06 -1.01675e-10 2.08917e-11)
(1.52207e-06 -8.04447e-12 -2.2468e-11)
(1.52311e-06 -1.71106e-10 -1.59709e-11)
(1.5205e-06 3.35535e-11 4.87483e-11)
(1.52506e-06 -2.66903e-10 -8.90591e-11)
(1.51969e-06 1.28191e-11 7.95186e-11)
(1.52517e-06 -6.97369e-11 -7.15055e-11)
(1.52271e-06 -2.61297e-11 3.91447e-11)
(1.52237e-06 5.88921e-10 -4.55883e-11)
(1.24186e-06 -7.0266e-08 9.79142e-08)
(1.78325e-06 2.03348e-08 -3.29542e-08)
(1.48979e-06 -1.04747e-08 5.90048e-09)
(1.11368e-06 -2.4001e-08 -5.55102e-09)
(2.26015e-06 4.75187e-08 3.11082e-08)
(8.47787e-07 -4.14896e-08 -3.42918e-08)
(1.89778e-06 2.12353e-08 2.23966e-08)
(1.39916e-06 -5.40626e-09 -7.5964e-09)
(1.5416e-06 2.64408e-10 1.41458e-09)
(1.52455e-06 6.68733e-11 4.49445e-11)
(1.52489e-06 3.16909e-11 3.97642e-11)
(1.52567e-06 1.71604e-11 5.36843e-12)
(1.52575e-06 -2.25869e-11 2.07369e-11)
(1.52612e-06 -3.67355e-11 -2.31454e-11)
(1.52602e-06 -3.0845e-11 -1.48946e-11)
(1.52601e-06 -4.40705e-11 -5.1736e-11)
(1.52585e-06 -4.88496e-11 -2.66026e-11)
(1.52585e-06 -5.83567e-11 -5.18189e-11)
(1.5257e-06 -3.98574e-11 -3.82444e-11)
(1.52558e-06 -5.17303e-11 -6.12338e-11)
(1.52545e-06 -3.45793e-11 -3.90904e-11)
(1.52534e-06 -4.65529e-11 -5.49159e-11)
(1.52528e-06 -3.05609e-11 -4.13205e-11)
(1.52516e-06 -4.89807e-11 -5.54824e-11)
(1.52514e-06 -1.80868e-11 -4.06716e-11)
(1.525e-06 -4.08596e-11 -4.71724e-11)
(1.52508e-06 -1.79516e-11 -3.97623e-11)
(1.52497e-06 -3.71874e-11 -3.80763e-11)
(1.52512e-06 1.0509e-11 -3.74684e-11)
(1.5249e-06 -1.46354e-11 -3.01196e-11)
(1.52513e-06 1.40749e-11 -3.09029e-11)
(1.52496e-06 -2.16004e-11 -1.63105e-11)
(1.52528e-06 3.60005e-11 -3.03437e-11)
(1.525e-06 -1.20034e-12 -6.33503e-12)
(1.52536e-06 3.33079e-11 -2.52162e-11)
(1.52509e-06 -9.76583e-12 9.75513e-12)
(1.52555e-06 4.10278e-11 -3.25518e-11)
(1.5251e-06 -9.95027e-12 1.30762e-11)
(1.52558e-06 2.96397e-11 -3.23698e-11)
(1.52516e-06 -4.46759e-11 2.52846e-11)
(1.52552e-06 1.72985e-11 -3.95781e-11)
(1.5253e-06 -9.89089e-11 2.11501e-11)
(1.52513e-06 -9.8507e-13 -2.35041e-11)
(1.52618e-06 -1.59092e-10 -1.55041e-11)
(1.52356e-06 3.46795e-11 4.97364e-11)