/*--------------------------------*- C++ -*----------------------------------*\
| =========                 |                                                 |
| \\      /  F ield         | OpenFOAM: The Open Source CFD Toolbox           |
|  \\    /   O peration     | Version:  2412                                  |
|   \\  /    A nd           | Website:  www.openfoam.com                      |
|    \\/     M anipulation  |                                                 |
\*---------------------------------------------------------------------------*/
FoamFile
{
    version     2.0;
    format      ascii;
    arch        "LSB;label=32;scalar=64";
    class       volScalarField;
    location    "2e-05";
    object      p;
}
// * * * * * * * * * * * * * * * * * * * * * * * * * * * * * * * * * * * * * //

dimensions      [0 2 -2 0 0 0 0];

internalField   nonuniform List<scalar> 
96800
(
0.000988786
0.000972213
0.000948127
0.000932828
0.000906614
0.000895101
0.000863664
0.000857558
0.000822841
0.000816014
0.000786171
0.000772201
0.000749227
0.000730376
0.000710051
0.000690106
0.000670112
0.0006501
0.00063011
0.000610101
0.000590108
0.0005701
0.000550105
0.000530098
0.000510102
0.000490094
0.000470098
0.000450089
0.000430094
0.000410083
0.00039009
0.000370077
0.000350086
0.000330069
0.000310081
0.000290062
0.000270075
0.000250055
0.000230063
0.000210055
0.000190041
0.000170059
0.000150014
0.000130053
0.00010999
9.00361e-05
6.99635e-05
5.00111e-05
2.99386e-05
9.99137e-06
0.00098883
0.000972215
0.000948116
0.000932849
0.000906566
0.000895188
0.000863565
0.000857651
0.000822769
0.000816057
0.000786151
0.000772208
0.000749226
0.000730375
0.000710051
0.000690106
0.000670112
0.0006501
0.00063011
0.000610101
0.000590108
0.0005701
0.000550105
0.000530098
0.000510102
0.000490094
0.000470098
0.000450089
0.000430094
0.000410083
0.00039009
0.000370077
0.000350086
0.000330069
0.000310081
0.000290061
0.000270075
0.000250055
0.000230063
0.000210055
0.000190041
0.000170059
0.000150013
0.000130054
0.00010999
9.00363e-05
6.99631e-05
5.00114e-05
2.99381e-05
9.99191e-06
0.000988861
0.000972208
0.000948127
0.000932841
0.000906561
0.000895208
0.000863528
0.000857708
0.0008227
0.000816121
0.000786103
0.000772238
0.000749211
0.000730381
0.000710049
0.000690106
0.000670112
0.0006501
0.00063011
0.000610101
0.000590108
0.0005701
0.000550105
0.000530098
0.000510102
0.000490094
0.000470098
0.000450089
0.000430094
0.000410083
0.00039009
0.000370077
0.000350086
0.000330069
0.000310081
0.000290061
0.000270075
0.000250055
0.000230063
0.000210055
0.00019004
0.000170059
0.000150013
0.000130054
0.00010999
9.00367e-05
6.99631e-05
5.00117e-05
2.99382e-05
9.99135e-06
0.000988852
0.000972205
0.000948142
0.000932821
0.000906584
0.000895192
0.00086353
0.000857731
0.000822653
0.000816176
0.000786054
0.00077227
0.000749194
0.000730387
0.000710047
0.000690106
0.000670112
0.0006501
0.00063011
0.000610101
0.000590108
0.0005701
0.000550105
0.000530098
0.000510102
0.000490094
0.000470098
0.000450089
0.000430094
0.000410083
0.00039009
0.000370077
0.000350086
0.000330069
0.000310081
0.000290061
0.000270075
0.000250055
0.000230063
0.000210055
0.00019004
0.000170059
0.000150013
0.000130054
0.00010999
9.0037e-05
6.99631e-05
5.00119e-05
2.99381e-05
9.99066e-06
0.000988833
0.000972214
0.000948144
0.00093281
0.000906607
0.000895167
0.000863545
0.000857736
0.000822624
0.000816219
0.000786011
0.000772301
0.000749177
0.000730394
0.000710045
0.000690107
0.000670112
0.0006501
0.00063011
0.000610101
0.000590108
0.0005701
0.000550105
0.000530098
0.000510102
0.000490094
0.000470098
0.000450089
0.000430094
0.000410083
0.00039009
0.000370077
0.000350086
0.000330069
0.000310081
0.000290061
0.000270075
0.000250055
0.000230063
0.000210055
0.00019004
0.000170059
0.000150013
0.000130054
0.00010999
9.00371e-05
6.99632e-05
5.0012e-05
2.99379e-05
9.99002e-06
0.00098883
0.000972223
0.000948144
0.000932804
0.000906624
0.000895143
0.000863563
0.000857732
0.000822606
0.000816252
0.000785974
0.000772328
0.000749161
0.000730401
0.000710043
0.000690107
0.000670112
0.0006501
0.00063011
0.000610101
0.000590108
0.0005701
0.000550105
0.000530098
0.000510102
0.000490094
0.000470098
0.000450089
0.000430094
0.000410083
0.00039009
0.000370077
0.000350086
0.000330069
0.000310081
0.000290061
0.000270075
0.000250055
0.000230063
0.000210055
0.00019004
0.00017006
0.000150013
0.000130054
0.00010999
9.00373e-05
6.99632e-05
5.0012e-05
2.99376e-05
9.98938e-06
0.00098883
0.000972229
0.000948144
0.000932799
0.000906639
0.00089512
0.000863584
0.000857723
0.000822593
0.00081628
0.000785942
0.000772353
0.000749146
0.000730407
0.000710041
0.000690107
0.000670112
0.0006501
0.00063011
0.000610101
0.000590108
0.0005701
0.000550105
0.000530098
0.000510102
0.000490094
0.000470098
0.000450089
0.000430094
0.000410083
0.00039009
0.000370077
0.000350086
0.000330069
0.000310081
0.000290061
0.000270075
0.000250055
0.000230063
0.000210055
0.00019004
0.00017006
0.000150013
0.000130055
0.00010999
9.00373e-05
6.99631e-05
5.00121e-05
2.99373e-05
9.98873e-06
0.000988827
0.000972235
0.000948143
0.000932793
0.000906653
0.000895097
0.000863607
0.000857711
0.000822585
0.000816304
0.000785913
0.000772377
0.000749132
0.000730413
0.000710039
0.000690108
0.000670112
0.0006501
0.00063011
0.000610101
0.000590108
0.0005701
0.000550105
0.000530098
0.000510102
0.000490094
0.000470098
0.000450089
0.000430094
0.000410083
0.00039009
0.000370077
0.000350086
0.000330069
0.000310081
0.000290061
0.000270075
0.000250055
0.000230063
0.000210056
0.00019004
0.00017006
0.000150013
0.000130055
0.00010999
9.00374e-05
6.99631e-05
5.00121e-05
2.99369e-05
9.98813e-06
0.00098882
0.000972241
0.000948142
0.000932788
0.000906667
0.000895074
0.000863632
0.000857697
0.00082258
0.000816325
0.000785887
0.000772398
0.000749119
0.000730419
0.000710037
0.000690108
0.000670111
0.0006501
0.00063011
0.000610101
0.000590108
0.0005701
0.000550105
0.000530098
0.000510102
0.000490094
0.000470099
0.000450089
0.000430094
0.000410083
0.00039009
0.000370076
0.000350086
0.000330069
0.000310081
0.000290061
0.000270075
0.000250055
0.000230063
0.000210056
0.00019004
0.00017006
0.000150013
0.000130055
0.00010999
9.00375e-05
6.99631e-05
5.00121e-05
2.99365e-05
9.98758e-06
0.00098881
0.000972248
0.00094814
0.000932784
0.000906679
0.000895052
0.000863656
0.000857683
0.000822576
0.000816343
0.000785863
0.000772418
0.000749106
0.000730424
0.000710035
0.000690108
0.000670111
0.0006501
0.00063011
0.000610101
0.000590108
0.0005701
0.000550105
0.000530098
0.000510102
0.000490094
0.000470099
0.000450089
0.000430094
0.000410083
0.00039009
0.000370076
0.000350086
0.000330069
0.000310081
0.000290061
0.000270075
0.000250056
0.000230063
0.000210056
0.00019004
0.00017006
0.000150013
0.000130055
0.00010999
9.00375e-05
6.9963e-05
5.00121e-05
2.9936e-05
9.98709e-06
0.000988797
0.000972254
0.000948137
0.00093278
0.000906691
0.000895031
0.000863679
0.000857668
0.000822574
0.000816359
0.000785842
0.000772437
0.000749095
0.000730429
0.000710033
0.000690109
0.000670111
0.0006501
0.00063011
0.000610101
0.000590108
0.0005701
0.000550105
0.000530098
0.000510102
0.000490094
0.000470099
0.000450089
0.000430094
0.000410083
0.00039009
0.000370076
0.000350086
0.000330069
0.000310081
0.000290061
0.000270075
0.000250056
0.000230062
0.000210056
0.00019004
0.00017006
0.000150013
0.000130055
0.00010999
9.00375e-05
6.99629e-05
5.00121e-05
2.99355e-05
9.98665e-06
0.000988783
0.00097226
0.000948134
0.000932777
0.000906702
0.000895012
0.000863702
0.000857654
0.000822574
0.000816374
0.000785822
0.000772454
0.000749085
0.000730434
0.000710032
0.000690109
0.000670111
0.000650099
0.00063011
0.000610101
0.000590108
0.0005701
0.000550105
0.000530098
0.000510102
0.000490094
0.000470099
0.000450089
0.000430094
0.000410083
0.00039009
0.000370076
0.000350086
0.000330069
0.000310081
0.000290061
0.000270075
0.000250056
0.000230062
0.000210056
0.00019004
0.00017006
0.000150013
0.000130055
0.00010999
9.00375e-05
6.99628e-05
5.0012e-05
2.9935e-05
9.98625e-06
0.000988767
0.000972265
0.000948129
0.000932774
0.000906712
0.000894994
0.000863722
0.000857641
0.000822574
0.000816386
0.000785804
0.000772469
0.000749075
0.000730438
0.00071003
0.000690109
0.000670111
0.000650099
0.00063011
0.000610101
0.000590108
0.0005701
0.000550105
0.000530098
0.000510102
0.000490094
0.000470099
0.000450089
0.000430094
0.000410083
0.00039009
0.000370076
0.000350086
0.000330069
0.000310081
0.000290061
0.000270075
0.000250056
0.000230062
0.000210056
0.00019004
0.00017006
0.000150013
0.000130055
0.00010999
9.00374e-05
6.99626e-05
5.0012e-05
2.99345e-05
9.9859e-06
0.00098875
0.000972268
0.000948124
0.000932772
0.000906721
0.000894979
0.000863741
0.000857629
0.000822574
0.000816398
0.000785788
0.000772483
0.000749066
0.000730442
0.000710029
0.000690109
0.000670111
0.000650099
0.00063011
0.000610101
0.000590108
0.0005701
0.000550105
0.000530098
0.000510102
0.000490094
0.000470099
0.000450089
0.000430094
0.000410083
0.00039009
0.000370076
0.000350086
0.000330069
0.000310081
0.000290061
0.000270075
0.000250056
0.000230062
0.000210056
0.00019004
0.00017006
0.000150013
0.000130055
0.00010999
9.00374e-05
6.99625e-05
5.00119e-05
2.99341e-05
9.98558e-06
0.000988734
0.000972271
0.000948118
0.00093277
0.000906729
0.000894965
0.000863757
0.000857618
0.000822575
0.000816408
0.000785774
0.000772495
0.000749059
0.000730446
0.000710028
0.00069011
0.000670111
0.000650099
0.00063011
0.000610101
0.000590108
0.0005701
0.000550105
0.000530098
0.000510102
0.000490094
0.000470099
0.000450089
0.000430094
0.000410083
0.00039009
0.000370076
0.000350086
0.000330069
0.000310081
0.000290061
0.000270075
0.000250056
0.000230062
0.000210056
0.00019004
0.00017006
0.000150013
0.000130055
0.000109989
9.00374e-05
6.99624e-05
5.00119e-05
2.99336e-05
9.9853e-06
0.000988717
0.000972274
0.000948113
0.000932768
0.000906735
0.000894953
0.000863772
0.000857608
0.000822576
0.000816416
0.000785761
0.000772506
0.000749052
0.000730449
0.000710027
0.00069011
0.000670111
0.000650099
0.00063011
0.000610101
0.000590108
0.0005701
0.000550105
0.000530098
0.000510102
0.000490094
0.000470099
0.000450089
0.000430094
0.000410083
0.00039009
0.000370076
0.000350086
0.000330069
0.000310081
0.000290061
0.000270075
0.000250056
0.000230062
0.000210056
0.000190039
0.00017006
0.000150013
0.000130055
0.000109989
9.00374e-05
6.99622e-05
5.00119e-05
2.99332e-05
9.98507e-06
0.000988702
0.000972276
0.000948108
0.000932766
0.00090674
0.000894942
0.000863784
0.000857599
0.000822578
0.000816424
0.000785751
0.000772516
0.000749046
0.000730451
0.000710026
0.00069011
0.000670111
0.000650099
0.00063011
0.000610101
0.000590108
0.0005701
0.000550105
0.000530098
0.000510102
0.000490094
0.000470099
0.000450089
0.000430094
0.000410083
0.00039009
0.000370076
0.000350086
0.000330069
0.000310081
0.000290061
0.000270075
0.000250056
0.000230062
0.000210056
0.000190039
0.00017006
0.000150013
0.000130055
0.000109989
9.00373e-05
6.99621e-05
5.00118e-05
2.99328e-05
9.98488e-06
0.000988688
0.000972278
0.000948103
0.000932765
0.000906744
0.000894934
0.000863794
0.000857592
0.000822579
0.00081643
0.000785742
0.000772524
0.000749041
0.000730454
0.000710025
0.00069011
0.000670111
0.000650099
0.00063011
0.000610101
0.000590108
0.0005701
0.000550105
0.000530098
0.000510102
0.000490094
0.000470099
0.000450089
0.000430095
0.000410083
0.00039009
0.000370076
0.000350086
0.000330069
0.000310081
0.000290061
0.000270075
0.000250056
0.000230062
0.000210056
0.000190039
0.00017006
0.000150013
0.000130055
0.000109989
9.00373e-05
6.9962e-05
5.00118e-05
2.99325e-05
9.98474e-06
0.000988677
0.000972279
0.000948099
0.000932764
0.000906747
0.000894927
0.000863803
0.000857585
0.000822581
0.000816434
0.000785735
0.000772531
0.000749037
0.000730456
0.000710024
0.00069011
0.000670111
0.000650099
0.00063011
0.000610101
0.000590108
0.0005701
0.000550105
0.000530098
0.000510102
0.000490094
0.000470099
0.000450089
0.000430095
0.000410083
0.00039009
0.000370076
0.000350086
0.000330069
0.000310081
0.000290061
0.000270075
0.000250056
0.000230062
0.000210056
0.000190039
0.00017006
0.000150013
0.000130054
0.000109989
9.00372e-05
6.99618e-05
5.00118e-05
2.99322e-05
9.98464e-06
0.000988667
0.00097228
0.000948096
0.000932764
0.000906749
0.000894923
0.000863809
0.00085758
0.000822582
0.000816437
0.00078573
0.000772536
0.000749034
0.000730457
0.000710024
0.00069011
0.000670111
0.000650099
0.00063011
0.000610101
0.000590108
0.0005701
0.000550105
0.000530098
0.000510102
0.000490094
0.000470099
0.000450089
0.000430095
0.000410083
0.00039009
0.000370076
0.000350086
0.000330069
0.000310081
0.000290061
0.000270075
0.000250056
0.000230062
0.000210056
0.000190039
0.00017006
0.000150013
0.000130054
0.000109989
9.00372e-05
6.99617e-05
5.00117e-05
2.9932e-05
9.98459e-06
0.000988661
0.000972281
0.000948094
0.000932764
0.00090675
0.00089492
0.000863814
0.000857577
0.000822584
0.000816439
0.000785727
0.000772539
0.000749032
0.000730458
0.000710023
0.00069011
0.000670111
0.000650099
0.00063011
0.000610101
0.000590108
0.0005701
0.000550105
0.000530098
0.000510102
0.000490094
0.000470099
0.000450089
0.000430095
0.000410083
0.00039009
0.000370076
0.000350086
0.000330069
0.000310081
0.000290061
0.000270075
0.000250056
0.000230062
0.000210056
0.000190039
0.00017006
0.000150013
0.000130054
0.000109989
9.00372e-05
6.99615e-05
5.00117e-05
2.99318e-05
9.98458e-06
0.000988656
0.000972282
0.000948092
0.000932764
0.00090675
0.000894919
0.000863816
0.000857574
0.000822585
0.00081644
0.000785725
0.000772541
0.00074903
0.000730459
0.000710023
0.000690111
0.000670111
0.000650099
0.00063011
0.000610101
0.000590108
0.0005701
0.000550105
0.000530098
0.000510102
0.000490094
0.000470099
0.000450089
0.000430095
0.000410083
0.00039009
0.000370076
0.000350086
0.000330069
0.000310081
0.000290061
0.000270075
0.000250056
0.000230062
0.000210056
0.000190039
0.00017006
0.000150012
0.000130054
0.000109989
9.00371e-05
6.99614e-05
5.00117e-05
2.99317e-05
9.9846e-06
0.000988655
0.000972281
0.000948091
0.000932765
0.000906749
0.000894919
0.000863817
0.000857573
0.000822586
0.000816439
0.000785726
0.000772541
0.00074903
0.000730459
0.000710023
0.000690111
0.000670111
0.000650099
0.00063011
0.000610101
0.000590108
0.0005701
0.000550105
0.000530098
0.000510102
0.000490094
0.000470099
0.000450089
0.000430095
0.000410083
0.00039009
0.000370076
0.000350086
0.000330069
0.000310081
0.000290061
0.000270075
0.000250056
0.000230062
0.000210056
0.000190039
0.00017006
0.000150012
0.000130054
0.000109989
9.00371e-05
6.99613e-05
5.00117e-05
2.99317e-05
9.98467e-06
0.000988658
0.00097228
0.000948091
0.000932766
0.000906747
0.000894922
0.000863815
0.000857574
0.000822588
0.000816437
0.000785728
0.00077254
0.000749031
0.000730459
0.000710023
0.000690111
0.000670111
0.000650099
0.00063011
0.000610101
0.000590108
0.0005701
0.000550105
0.000530098
0.000510102
0.000490094
0.000470099
0.000450089
0.000430095
0.000410083
0.00039009
0.000370076
0.000350086
0.000330069
0.000310081
0.000290061
0.000270075
0.000250056
0.000230062
0.000210056
0.000190039
0.00017006
0.000150012
0.000130054
0.000109989
9.0037e-05
6.99612e-05
5.00116e-05
2.99317e-05
9.98478e-06
0.000988663
0.000972278
0.000948091
0.000932767
0.000906744
0.000894926
0.000863812
0.000857575
0.000822589
0.000816434
0.000785731
0.000772537
0.000749033
0.000730458
0.000710023
0.000690111
0.000670111
0.000650099
0.00063011
0.000610101
0.000590108
0.0005701
0.000550105
0.000530098
0.000510102
0.000490094
0.000470099
0.000450089
0.000430095
0.000410083
0.00039009
0.000370076
0.000350086
0.000330069
0.000310081
0.000290061
0.000270075
0.000250055
0.000230062
0.000210056
0.000190039
0.00017006
0.000150012
0.000130054
0.000109989
9.0037e-05
6.99611e-05
5.00116e-05
2.99317e-05
9.98493e-06
0.000988671
0.000972276
0.000948092
0.000932769
0.00090674
0.000894931
0.000863806
0.000857578
0.00082259
0.000816429
0.000785737
0.000772532
0.000749035
0.000730457
0.000710024
0.00069011
0.000670111
0.000650099
0.00063011
0.000610101
0.000590108
0.0005701
0.000550105
0.000530098
0.000510102
0.000490094
0.000470099
0.000450089
0.000430095
0.000410083
0.00039009
0.000370076
0.000350086
0.000330069
0.000310081
0.000290061
0.000270075
0.000250055
0.000230062
0.000210056
0.000190039
0.00017006
0.000150012
0.000130054
0.000109989
9.00369e-05
6.9961e-05
5.00116e-05
2.99318e-05
9.98511e-06
0.000988681
0.000972273
0.000948093
0.000932771
0.000906735
0.000894939
0.000863798
0.000857583
0.000822591
0.000816423
0.000785744
0.000772526
0.000749039
0.000730455
0.000710024
0.00069011
0.000670111
0.000650099
0.00063011
0.000610101
0.000590108
0.0005701
0.000550105
0.000530098
0.000510102
0.000490094
0.000470099
0.000450089
0.000430095
0.000410083
0.00039009
0.000370076
0.000350086
0.000330069
0.000310081
0.000290061
0.000270075
0.000250055
0.000230063
0.000210056
0.00019004
0.00017006
0.000150012
0.000130054
0.000109989
9.00369e-05
6.9961e-05
5.00116e-05
2.9932e-05
9.98533e-06
0.000988693
0.00097227
0.000948095
0.000932774
0.000906728
0.000894948
0.000863789
0.000857588
0.000822592
0.000816416
0.000785753
0.000772518
0.000749043
0.000730453
0.000710025
0.00069011
0.000670111
0.000650099
0.00063011
0.000610101
0.000590108
0.0005701
0.000550105
0.000530098
0.000510102
0.000490094
0.000470099
0.000450089
0.000430095
0.000410083
0.00039009
0.000370076
0.000350086
0.000330069
0.000310081
0.000290061
0.000270075
0.000250055
0.000230063
0.000210056
0.00019004
0.00017006
0.000150012
0.000130054
0.000109989
9.00369e-05
6.99609e-05
5.00116e-05
2.99322e-05
9.98559e-06
0.000988706
0.000972267
0.000948097
0.000932777
0.000906721
0.000894959
0.000863777
0.000857595
0.000822593
0.000816408
0.000785765
0.000772509
0.000749049
0.000730451
0.000710025
0.00069011
0.000670111
0.000650099
0.00063011
0.000610101
0.000590108
0.0005701
0.000550105
0.000530098
0.000510102
0.000490094
0.000470099
0.000450089
0.000430095
0.000410083
0.00039009
0.000370076
0.000350086
0.000330069
0.000310081
0.000290061
0.000270075
0.000250055
0.000230063
0.000210056
0.00019004
0.00017006
0.000150012
0.000130054
0.000109988
9.00368e-05
6.99609e-05
5.00117e-05
2.99325e-05
9.98588e-06
0.00098872
0.000972263
0.000948099
0.00093278
0.000906712
0.000894972
0.000863764
0.000857603
0.000822595
0.000816398
0.000785778
0.000772499
0.000749055
0.000730448
0.000710026
0.00069011
0.000670111
0.000650099
0.00063011
0.000610101
0.000590108
0.0005701
0.000550105
0.000530098
0.000510102
0.000490094
0.000470099
0.000450089
0.000430095
0.000410083
0.00039009
0.000370076
0.000350086
0.000330069
0.000310081
0.000290061
0.000270075
0.000250055
0.000230063
0.000210056
0.00019004
0.00017006
0.000150012
0.000130054
0.000109988
9.00368e-05
6.99608e-05
5.00117e-05
2.99328e-05
9.98622e-06
0.000988735
0.000972259
0.0009481
0.000932784
0.000906702
0.000894986
0.000863748
0.000857613
0.000822596
0.000816386
0.000785792
0.000772487
0.000749062
0.000730445
0.000710027
0.00069011
0.000670111
0.000650099
0.00063011
0.000610101
0.000590108
0.0005701
0.000550105
0.000530098
0.000510102
0.000490094
0.000470099
0.000450089
0.000430095
0.000410083
0.00039009
0.000370076
0.000350086
0.000330069
0.000310081
0.000290061
0.000270075
0.000250055
0.000230063
0.000210055
0.00019004
0.00017006
0.000150012
0.000130054
0.000109988
9.00368e-05
6.99608e-05
5.00117e-05
2.99331e-05
9.98661e-06
0.00098875
0.000972254
0.000948101
0.000932787
0.000906692
0.000895003
0.000863731
0.000857623
0.000822598
0.000816374
0.000785809
0.000772473
0.000749071
0.000730441
0.000710029
0.000690109
0.000670111
0.000650099
0.00063011
0.000610101
0.000590108
0.0005701
0.000550105
0.000530098
0.000510102
0.000490094
0.000470099
0.000450089
0.000430095
0.000410083
0.00039009
0.000370076
0.000350086
0.000330069
0.000310081
0.000290061
0.000270075
0.000250055
0.000230063
0.000210055
0.00019004
0.00017006
0.000150012
0.000130054
0.000109988
9.00367e-05
6.99608e-05
5.00117e-05
2.99335e-05
9.98704e-06
0.000988764
0.000972248
0.000948102
0.000932791
0.00090668
0.000895021
0.000863711
0.000857634
0.000822601
0.000816359
0.000785827
0.000772458
0.00074908
0.000730437
0.00071003
0.000690109
0.000670111
0.000650099
0.00063011
0.000610101
0.000590108
0.0005701
0.000550105
0.000530098
0.000510102
0.000490094
0.000470099
0.000450089
0.000430095
0.000410083
0.00039009
0.000370076
0.000350086
0.000330069
0.000310081
0.000290061
0.000270075
0.000250055
0.000230063
0.000210055
0.00019004
0.00017006
0.000150012
0.000130054
0.000109988
9.00367e-05
6.99608e-05
5.00118e-05
2.99339e-05
9.98751e-06
0.000988777
0.000972242
0.000948103
0.000932796
0.000906667
0.00089504
0.00086369
0.000857646
0.000822604
0.000816344
0.000785847
0.000772441
0.00074909
0.000730433
0.000710031
0.000690109
0.000670111
0.000650099
0.00063011
0.000610101
0.000590108
0.0005701
0.000550105
0.000530098
0.000510102
0.000490094
0.000470099
0.000450089
0.000430095
0.000410083
0.00039009
0.000370076
0.000350086
0.000330069
0.000310081
0.000290061
0.000270075
0.000250055
0.000230063
0.000210055
0.00019004
0.000170059
0.000150012
0.000130054
0.000109988
9.00366e-05
6.99607e-05
5.00118e-05
2.99343e-05
9.98802e-06
0.000988787
0.000972235
0.000948104
0.0009328
0.000906653
0.000895061
0.000863668
0.000857659
0.000822608
0.000816327
0.000785869
0.000772423
0.000749101
0.000730428
0.000710033
0.000690109
0.000670111
0.000650099
0.00063011
0.000610101
0.000590108
0.0005701
0.000550105
0.000530098
0.000510102
0.000490094
0.000470099
0.000450089
0.000430095
0.000410083
0.00039009
0.000370076
0.000350086
0.000330069
0.000310081
0.000290061
0.000270075
0.000250055
0.000230063
0.000210055
0.00019004
0.000170059
0.000150012
0.000130054
0.000109988
9.00366e-05
6.99607e-05
5.00118e-05
2.99347e-05
9.98856e-06
0.000988794
0.000972229
0.000948105
0.000932806
0.000906639
0.000895083
0.000863646
0.000857671
0.000822614
0.000816308
0.000785893
0.000772404
0.000749113
0.000730423
0.000710035
0.000690108
0.000670111
0.000650099
0.00063011
0.000610101
0.000590108
0.0005701
0.000550105
0.000530098
0.000510102
0.000490094
0.000470099
0.000450089
0.000430095
0.000410083
0.00039009
0.000370076
0.000350086
0.000330069
0.000310081
0.000290061
0.000270075
0.000250055
0.000230063
0.000210055
0.00019004
0.000170059
0.000150012
0.000130054
0.000109988
9.00365e-05
6.99607e-05
5.00118e-05
2.99351e-05
9.98914e-06
0.000988798
0.000972223
0.000948105
0.000932812
0.000906624
0.000895106
0.000863623
0.000857682
0.000822621
0.000816286
0.000785919
0.000772383
0.000749125
0.000730417
0.000710036
0.000690108
0.000670111
0.000650099
0.00063011
0.000610101
0.000590108
0.0005701
0.000550105
0.000530098
0.000510102
0.000490094
0.000470099
0.000450089
0.000430095
0.000410083
0.00039009
0.000370076
0.000350086
0.000330069
0.000310081
0.000290061
0.000270075
0.000250055
0.000230063
0.000210055
0.00019004
0.000170059
0.000150012
0.000130054
0.000109988
9.00364e-05
6.99607e-05
5.00118e-05
2.99356e-05
9.98976e-06
0.000988798
0.000972217
0.000948104
0.000932818
0.000906609
0.000895128
0.000863602
0.000857692
0.000822631
0.000816262
0.000785948
0.00077236
0.000749139
0.000730411
0.000710038
0.000690108
0.000670111
0.0006501
0.00063011
0.000610101
0.000590108
0.0005701
0.000550105
0.000530098
0.000510102
0.000490094
0.000470099
0.000450089
0.000430095
0.000410083
0.00039009
0.000370076
0.000350086
0.000330069
0.000310081
0.000290061
0.000270075
0.000250055
0.000230063
0.000210055
0.00019004
0.000170059
0.000150012
0.000130054
0.000109988
9.00363e-05
6.99607e-05
5.00118e-05
2.99359e-05
9.99042e-06
0.000988794
0.000972211
0.000948103
0.000932825
0.000906595
0.00089515
0.000863584
0.000857698
0.000822645
0.000816233
0.00078598
0.000772335
0.000749153
0.000730405
0.00071004
0.000690107
0.000670111
0.0006501
0.00063011
0.000610101
0.000590108
0.0005701
0.000550105
0.000530098
0.000510102
0.000490094
0.000470099
0.000450089
0.000430095
0.000410083
0.00039009
0.000370076
0.000350086
0.000330069
0.000310081
0.000290061
0.000270075
0.000250055
0.000230063
0.000210055
0.00019004
0.000170059
0.000150012
0.000130053
0.000109988
9.00362e-05
6.99606e-05
5.00118e-05
2.99363e-05
9.99109e-06
0.000988794
0.000972202
0.000948102
0.000932831
0.000906578
0.000895173
0.000863567
0.0008577
0.000822665
0.000816199
0.000786016
0.000772308
0.000749169
0.000730398
0.000710042
0.000690107
0.000670111
0.0006501
0.00063011
0.000610101
0.000590108
0.0005701
0.000550105
0.000530098
0.000510102
0.000490094
0.000470099
0.000450089
0.000430095
0.000410083
0.00039009
0.000370076
0.000350086
0.000330069
0.000310081
0.000290061
0.000270075
0.000250055
0.000230063
0.000210054
0.00019004
0.000170058
0.000150012
0.000130053
0.000109988
9.00361e-05
6.99606e-05
5.00117e-05
2.99366e-05
9.99175e-06
0.00098881
0.000972193
0.000948098
0.000932843
0.000906555
0.000895197
0.000863554
0.000857693
0.000822694
0.000816156
0.000786058
0.000772278
0.000749186
0.000730392
0.000710045
0.000690107
0.000670111
0.0006501
0.00063011
0.000610101
0.000590108
0.0005701
0.000550105
0.000530098
0.000510102
0.000490094
0.000470099
0.000450089
0.000430095
0.000410083
0.00039009
0.000370076
0.000350086
0.000330069
0.000310081
0.000290061
0.000270075
0.000250055
0.000230063
0.000210054
0.000190041
0.000170058
0.000150012
0.000130053
0.000109988
9.0036e-05
6.99606e-05
5.00117e-05
2.99368e-05
9.99239e-06
0.000988819
0.000972196
0.000948084
0.000932863
0.000906532
0.000895212
0.000863554
0.000857669
0.000822741
0.000816102
0.000786106
0.000772246
0.000749203
0.000730385
0.000710047
0.000690106
0.000670111
0.0006501
0.00063011
0.000610101
0.000590108
0.0005701
0.000550105
0.000530098
0.000510102
0.000490094
0.000470099
0.000450089
0.000430095
0.000410083
0.00039009
0.000370076
0.000350086
0.000330069
0.000310081
0.000290061
0.000270075
0.000250055
0.000230063
0.000210054
0.000190041
0.000170058
0.000150013
0.000130053
0.000109988
9.00358e-05
6.99606e-05
5.00115e-05
2.9937e-05
9.99305e-06
0.000988789
0.000972203
0.000948073
0.000932871
0.000906537
0.000895191
0.000863591
0.000857612
0.000822811
0.000816037
0.000786155
0.000772216
0.000749217
0.00073038
0.000710048
0.000690106
0.000670111
0.0006501
0.00063011
0.000610101
0.000590108
0.0005701
0.000550105
0.000530098
0.000510102
0.000490094
0.000470098
0.000450089
0.000430094
0.000410083
0.00039009
0.000370076
0.000350086
0.000330069
0.000310081
0.000290061
0.000270075
0.000250055
0.000230063
0.000210054
0.000190041
0.000170058
0.000150013
0.000130053
0.000109988
9.00355e-05
6.99608e-05
5.00113e-05
2.99371e-05
9.99353e-06
0.000988746
0.000972199
0.000948085
0.000932849
0.000906585
0.000895106
0.00086369
0.00085752
0.000822883
0.000815994
0.000786175
0.000772209
0.000749218
0.00073038
0.000710048
0.000690106
0.000670111
0.0006501
0.00063011
0.000610101
0.000590108
0.0005701
0.000550105
0.000530098
0.000510102
0.000490094
0.000470098
0.000450089
0.000430094
0.000410083
0.00039009
0.000370076
0.000350086
0.000330069
0.000310081
0.000290061
0.000270075
0.000250055
0.000230063
0.000210054
0.000190041
0.000170058
0.000150013
0.000130052
0.000109988
9.00352e-05
6.99612e-05
5.0011e-05
2.99376e-05
9.99277e-06
0.00098883
0.000972215
0.000948116
0.000932849
0.000906566
0.000895188
0.000863565
0.000857651
0.000822769
0.000816057
0.000786151
0.000772208
0.000749226
0.000730375
0.000710051
0.000690106
0.000670112
0.0006501
0.00063011
0.000610101
0.000590108
0.0005701
0.000550105
0.000530098
0.000510102
0.000490094
0.000470098
0.000450089
0.000430094
0.000410083
0.00039009
0.000370077
0.000350086
0.000330069
0.000310081
0.000290061
0.000270075
0.000250055
0.000230063
0.000210055
0.000190041
0.000170059
0.000150013
0.000130054
0.00010999
9.00363e-05
6.99631e-05
5.00114e-05
2.99381e-05
9.99193e-06
0.000988351
0.000972394
0.000947923
0.000933052
0.000906373
0.000895347
0.000863467
0.000857687
0.00082278
0.000816026
0.000786184
0.000772187
0.000749236
0.000730371
0.000710052
0.000690105
0.000670112
0.0006501
0.00063011
0.000610101
0.000590108
0.0005701
0.000550105
0.000530098
0.000510102
0.000490094
0.000470098
0.000450089
0.000430094
0.000410083
0.00039009
0.000370077
0.000350086
0.000330069
0.000310081
0.000290061
0.000270075
0.000250055
0.000230063
0.000210054
0.000190041
0.000170058
0.000150014
0.000130053
0.000109989
9.00359e-05
6.99619e-05
5.00115e-05
2.99364e-05
9.99509e-06
0.000988452
0.000972391
0.000947913
0.000933072
0.00090634
0.000895386
0.000863423
0.000857736
0.00082273
0.000816068
0.000786152
0.000772207
0.000749226
0.000730375
0.000710051
0.000690106
0.000670112
0.0006501
0.00063011
0.000610101
0.000590108
0.0005701
0.000550105
0.000530098
0.000510102
0.000490094
0.000470098
0.000450089
0.000430094
0.000410083
0.00039009
0.000370077
0.000350086
0.000330069
0.000310081
0.000290061
0.000270075
0.000250055
0.000230063
0.000210054
0.000190041
0.000170058
0.000150013
0.000130053
0.000109989
9.00364e-05
6.99619e-05
5.0012e-05
2.99366e-05
9.99455e-06
0.000988511
0.000972367
0.000947933
0.000933048
0.000906359
0.000895374
0.000863419
0.000857761
0.000822687
0.000816117
0.000786109
0.000772236
0.000749211
0.000730381
0.000710049
0.000690106
0.000670112
0.0006501
0.00063011
0.000610101
0.000590108
0.0005701
0.000550105
0.000530098
0.000510102
0.000490094
0.000470098
0.000450089
0.000430094
0.000410083
0.00039009
0.000370077
0.000350086
0.000330069
0.000310081
0.000290061
0.000270075
0.000250055
0.000230063
0.000210054
0.000190041
0.000170058
0.000150013
0.000130054
0.000109989
9.00367e-05
6.9962e-05
5.00121e-05
2.99367e-05
9.99381e-06
0.00098848
0.000972369
0.000947943
0.00093303
0.000906386
0.000895347
0.000863435
0.000857765
0.000822659
0.000816158
0.000786068
0.000772265
0.000749195
0.000730387
0.000710047
0.000690106
0.000670112
0.0006501
0.00063011
0.000610101
0.000590108
0.0005701
0.000550105
0.000530098
0.000510102
0.000490094
0.000470098
0.000450089
0.000430094
0.000410083
0.00039009
0.000370077
0.000350086
0.000330069
0.000310081
0.000290061
0.000270075
0.000250055
0.000230063
0.000210055
0.000190041
0.000170059
0.000150013
0.000130054
0.000109989
9.00368e-05
6.9962e-05
5.00122e-05
2.99366e-05
9.99325e-06
0.000988463
0.00097238
0.000947941
0.000933023
0.000906405
0.000895322
0.000863456
0.00085776
0.000822643