/*--------------------------------*- C++ -*----------------------------------*\
| =========                 |                                                 |
| \\      /  F ield         | OpenFOAM: The Open Source CFD Toolbox           |
|  \\    /   O peration     | Version:  2412                                  |
|   \\  /    A nd           | Website:  www.openfoam.com                      |
|    \\/     M anipulation  |                                                 |
\*---------------------------------------------------------------------------*/
FoamFile
{
    version     2.0;
    format      ascii;
    arch        "LSB;label=32;scalar=64";
    class       surfaceScalarField;
    location    "2e-05";
    object      phi;
}
// * * * * * * * * * * * * * * * * * * * * * * * * * * * * * * * * * * * * * //

dimensions      [0 3 -1 0 0 0 0];

oriented        oriented;

internalField   nonuniform List<scalar> 
284064
(
2.21647e-20
5.5563e-22
5.53978e-22
2.42625e-20
-1.05504e-21
-1.05494e-21
2.2161e-20
1.04321e-21
1.04317e-21
2.47087e-20
-1.27691e-21
-1.27643e-21
2.10884e-20
1.80462e-21
1.80453e-21
2.63415e-20
-2.62469e-21
-2.62454e-21
1.92648e-20
3.53679e-21
3.53665e-21
2.74868e-20
-4.10581e-21
-4.10577e-21
1.94336e-20
4.02914e-21
4.02897e-21
2.59491e-20
-3.25195e-21
-3.25205e-21
2.16269e-20
2.16549e-21
2.16563e-21
2.39413e-20
-1.15272e-21
-1.15282e-21
2.29624e-20
4.93782e-22
4.93863e-22
2.32785e-20
-1.55722e-22
-1.55941e-22
2.32106e-20
3.7247e-23
3.726e-23
2.32153e-20
-1.39751e-24
-1.5125e-24
2.32225e-20
-1.43552e-24
-1.441e-24
2.32168e-20
3.00658e-24
2.92362e-24
2.32227e-20
-1.51402e-24
-1.52017e-24
2.32187e-20
1.86072e-24
1.80999e-24
2.3223e-20
-1.20148e-24
-1.16782e-24
2.32199e-20
1.29392e-24
1.30723e-24
2.32234e-20
-1.16973e-24
-1.1429e-24
2.32204e-20
1.03363e-24
1.03842e-24
2.32239e-20
-1.40463e-24
-1.35557e-24
2.32207e-20
1.03951e-24
1.06196e-24
2.32244e-20
-1.64763e-24
-1.60746e-24
2.32206e-20
1.40191e-24
1.38851e-24
2.3225e-20
-1.89567e-24
-1.82036e-24
2.32201e-20
1.9823e-24
1.98552e-24
2.32256e-20
-2.33552e-24
-2.31671e-24
2.32194e-20
2.63615e-24
2.61821e-24
2.32263e-20
-3.19142e-24
-3.12547e-24
2.32185e-20
3.26438e-24
3.28652e-24
2.32269e-20
-4.07714e-24
-4.04708e-24
2.32178e-20
3.7788e-24
3.75098e-24
2.32268e-20
-4.37988e-24
-4.30121e-24
2.3219e-20
2.96608e-24
2.98079e-24
2.32238e-20
-2.40672e-24
-2.36996e-24
2.32252e-20
-1.96672e-24
-2.00005e-24
2.32165e-20
3.85589e-24
3.91994e-24
2.32349e-20
-1.10426e-23
-1.10815e-23
2.32112e-20
1.08584e-23
1.09049e-23
2.32409e-20
-1.72084e-23
-1.72616e-23
2.32119e-20
1.28044e-23
1.2884e-23
2.32449e-20
-1.9339e-23
-1.93749e-23
2.32123e-20
1.35211e-23
1.35467e-23
2.32433e-20
-1.80677e-23
-1.81671e-23
2.31946e-20
2.02684e-23
2.02628e-23
1.14329e-23
9.98978e-24
4.9409e-20
-5.09266e-22
1.60363e-21
5.18154e-20
-1.08451e-21
-2.41167e-21
4.98897e-20
3.76602e-22
2.5487e-21
5.21256e-20
-2.9138e-22
-3.23807e-21
4.8737e-20
6.83283e-22
4.47807e-21
5.40975e-20
-1.31549e-21
-6.65899e-21
4.6314e-20
2.87721e-21
8.43417e-21
5.57869e-20
-4.60856e-21
-8.94062e-21
4.62322e-20
5.72834e-21
7.86993e-21
5.40504e-20
-5.3982e-21
-5.6387e-21
4.88726e-20
4.1257e-21
3.24342e-21
5.16043e-20
-2.44193e-21
-1.41691e-21
5.04866e-20
1.16987e-21
4.67027e-22
5.08289e-20
-4.07095e-22
-7.78043e-23
5.07657e-20
1.20825e-22
-1.21559e-24
5.0767e-20
-1.03643e-23
1.30539e-23
5.07772e-20
4.66808e-24
-3.83217e-24
5.07708e-20
5.17196e-24
5.07563e-24
5.07785e-20
1.20859e-24
-2.06774e-24
5.0774e-20
2.70418e-24
2.8393e-24
5.07795e-20
4.74549e-25
-1.63851e-24
5.07759e-20
1.40652e-24
1.98924e-24
5.07804e-20
-2.40042e-25
-1.78718e-24
5.07769e-20
4.15588e-25
1.53319e-24
5.07812e-20
-1.3605e-24
-2.24054e-24
5.07773e-20
-7.37335e-26
1.68862e-24
5.07817e-20
-1.94981e-24
-2.79237e-24
5.07771e-20
7.07362e-25
2.34485e-24
5.07822e-20
-1.87432e-24
-3.2647e-24
5.07764e-20
1.74799e-24
3.61284e-24
5.07826e-20
-2.13315e-24
-4.22357e-24
5.07752e-20
2.48577e-24
4.87012e-24
5.07831e-20
-3.52973e-24
-5.87031e-24
5.07738e-20
2.52865e-24
6.35343e-24
5.07834e-20
-4.88738e-24
-7.91007e-24
5.07727e-20
2.38501e-24
7.61834e-24
5.07828e-20
-4.59391e-24
-9.2472e-24
5.07738e-20
-6.00557e-25
7.2785e-24
5.07791e-20
-5.58945e-25
-7.22778e-24
5.07815e-20
-1.19467e-23
2.05968e-25
5.07708e-20
8.21032e-24
3.62514e-24
5.07938e-20
-2.702e-23
-1.78583e-23
5.07663e-20
1.23345e-23
2.01966e-23
5.08018e-20
-3.24713e-23
-3.38968e-23
5.07703e-20
7.38735e-24
2.68921e-23
5.08082e-20
-3.41508e-23
-3.96618e-23
5.07723e-20
4.5904e-24
2.88644e-23
5.08043e-20
-2.68457e-23
-3.83759e-23
5.07324e-20
2.18071e-23
4.70873e-23
7.05035e-23
1.53811e-23
6.82956e-20
-1.3983e-21
8.59623e-22
7.08549e-20
-8.34987e-22
-2.84318e-21
6.90578e-20
-7.63311e-22
2.89375e-21
7.12314e-20
1.32991e-21
-3.81172e-21
6.77081e-20
-1.34507e-21
5.52004e-21
7.34597e-20
5.60402e-22
-7.61703e-21
6.50815e-20
1.65282e-21
9.59395e-21
7.51163e-20
-4.30828e-21
-1.03058e-20
6.5249e-20
6.40132e-21
9.20883e-21
7.30228e-20
-6.53566e-21
-6.60321e-21
6.81291e-20
5.24446e-21
3.80074e-21
7.05383e-20
-3.17801e-21
-1.64748e-21
6.96535e-20
1.54653e-21
5.33399e-22
6.98803e-20
-5.35452e-22
-8.52612e-23
6.98603e-20
1.60977e-22
-1.06405e-24
6.98521e-20
-1.42044e-23
1.74576e-23
6.98645e-20
7.8757e-24
-3.15207e-24
6.98587e-20
6.0042e-24
5.8941e-24
6.98666e-20
2.72677e-24
-1.28214e-24
6.98626e-20
2.93436e-24
3.08717e-24
6.98683e-20
1.37201e-24
-1.12023e-24
6.9865e-20
1.21968e-24
2.07818e-24
6.98696e-20
3.18713e-25
-1.53563e-24
6.98662e-20
-1.09924e-25
1.39615e-24
6.98704e-20
-1.22842e-24
-2.35646e-24
6.98665e-20
-8.11105e-25
1.36079e-24
6.98708e-20
-1.88914e-24
-3.0904e-24
6.98661e-20
2.30546e-25
2.2405e-24
6.98711e-20
-1.67048e-24
-3.34215e-24
6.98652e-20
1.46917e-24
3.80123e-24
6.98712e-20
-1.64706e-24
-4.3412e-24
6.98636e-20
2.22652e-24
5.18655e-24
6.98713e-20
-3.24557e-24
-6.32034e-24
6.98618e-20
1.74296e-24
6.7105e-24
6.98712e-20
-4.6367e-24
-8.86469e-24
6.986e-20
1.02644e-24
8.1013e-24
6.98702e-20
-4.02278e-24
-1.02342e-23
6.98604e-20
-3.75403e-24
7.87504e-24
6.98666e-20
1.34686e-24
-8.33025e-24
6.98676e-20
-1.85559e-23
-1.74153e-24
6.98582e-20
1.09528e-23
3.98768e-24
6.98811e-20
-3.66754e-23
-2.39991e-23
6.98534e-20
1.21121e-23
2.19139e-23
6.98906e-20
-4.00119e-23
-4.32013e-23
6.9859e-20
7.22807e-25
2.82216e-23
6.98984e-20
-3.93553e-23
-5.06726e-23
6.98618e-20
-4.7659e-24
3.00428e-23
6.98932e-20
-2.58044e-23
-4.74922e-23
6.98094e-20
3.12281e-23
5.15065e-23
1.17857e-22
3.71285e-23
8.23333e-20
-1.67703e-21
-1.34602e-22
8.50377e-20
-1.10959e-21
-2.46345e-21
8.33044e-20
-1.31491e-21
2.24262e-21
8.54913e-20
2.23008e-21
-3.10379e-21
8.18273e-20
-2.6626e-21
4.95056e-21
8.78532e-20
1.9136e-21
-7.36906e-21
7.91299e-20
6.04339e-22
9.76348e-21
8.94359e-20
-3.71304e-21
-1.08726e-20
7.94662e-20
6.40423e-21
9.98119e-21
8.71525e-20
-6.92293e-21
-7.26653e-21
8.2447e-20
5.71143e-21
4.26395e-21
8.46755e-20
-3.51172e-21
-1.86954e-21
8.39121e-20
1.73158e-21
6.03169e-22
8.40828e-20
-5.99441e-22
-9.34909e-23
8.4083e-20
1.80895e-22
-1.46608e-24
8.40709e-20
-1.62106e-23
1.95405e-23
8.40843e-20
9.72944e-24
-3.04061e-24
8.4079e-20
6.31513e-24
6.09704e-24
8.40871e-20
3.76013e-24
-1.1406e-24
8.40833e-20
3.05338e-24
3.02663e-24
8.40891e-20
1.99194e-24
-1.02509e-24
8.40859e-20
1.12544e-24
1.93956e-24
8.40905e-20
8.15065e-25
-1.543e-24
8.40871e-20
-3.33994e-25
1.16062e-24
8.40912e-20
-9.91633e-25
-2.43504e-24
8.40872e-20
-1.14084e-24
1.09493e-24
8.40914e-20
-1.63854e-24
-3.20081e-24
8.40866e-20
9.19631e-26
2.07929e-24
8.40914e-20
-1.43746e-24
-3.25165e-24
8.40854e-20
1.4286e-24
3.76752e-24
8.40912e-20
-1.17138e-24
-4.19384e-24
8.40834e-20
2.2621e-24
5.12097e-24
8.40909e-20
-2.89955e-24
-6.21504e-24
8.40811e-20
1.43303e-24
6.53905e-24
8.40903e-20
-4.20741e-24
-8.91982e-24
8.40789e-20
4.43963e-25
7.74597e-24
8.40891e-20
-3.50984e-24
-1.01899e-23
8.40786e-20
-5.27624e-24
6.95473e-24
8.40853e-20
2.40667e-24
-8.01955e-24
8.40855e-20
-2.17993e-23
-4.12307e-24
8.40768e-20
1.18608e-23
5.02266e-24
8.40994e-20
-4.06825e-23
-2.91602e-23
8.4072e-20
1.04802e-23
2.31009e-23
8.411e-20
-4.2148e-23
-4.92298e-23
8.40784e-20
-4.7364e-24
2.70883e-23
8.41187e-20
-4.02927e-23
-5.55938e-23
8.40817e-20
-9.93133e-24
2.64858e-23
8.41129e-20
-2.27334e-23
-4.89614e-23
8.40221e-20
4.80141e-23
5.1633e-23
1.51136e-22
5.64797e-23
9.31229e-20
-2.5065e-21
1.58668e-22
9.59688e-20
-1.5265e-21
-2.46193e-21
9.42473e-20
-1.52434e-21
1.8894e-21
9.64966e-20
2.55994e-21
-2.59572e-21
9.2697e-20
-3.24522e-21
4.35184e-21
9.8912e-20
2.63797e-21
-6.92975e-21
8.9996e-20
-1.08041e-22
9.62043e-21
1.00416e-19
-3.15288e-21
-1.09522e-20
9.04434e-20
6.12808e-21
1.02631e-20
9.80387e-20
-6.87351e-21
-7.61283e-21
9.34576e-20
5.77757e-21
4.53996e-21
9.55835e-20
-3.59275e-21
-2.01998e-21
9.48843e-20
1.78927e-21
6.65979e-22
9.50274e-20
-6.22914e-22
-1.06493e-22
9.50374e-20
1.88296e-22
9.35143e-25
9.50237e-20
-1.71792e-23
2.01332e-23
9.50377e-20
1.05742e-23
-2.74982e-24
9.50326e-20
6.36385e-24
6.17461e-24
9.50409e-20
4.3879e-24
-9.66765e-25
9.50372e-20
3.18169e-24
2.93996e-24
9.5043e-20
2.40006e-24
-9.13639e-25
9.50399e-20
1.16199e-24
1.83346e-24
9.50444e-20
1.27017e-24
-1.52334e-24
9.50409e-20
-1.98341e-25
8.9801e-25
9.50449e-20
-6.3476e-25
-2.49503e-24
9.50409e-20
-1.03298e-24
8.15536e-25
9.50449e-20
-1.18149e-24
-3.3166e-24
9.504e-20
3.38356e-25
1.87217e-24
9.50446e-20
-9.80126e-25
-3.35236e-24
9.50385e-20
1.70928e-24
3.64663e-24
9.50441e-20
-5.37289e-25
-4.22926e-24
9.50362e-20
2.63329e-24
4.99354e-24
9.50434e-20
-2.3774e-24
-6.23575e-24
9.50335e-20
1.53944e-24
6.38542e-24
9.50425e-20
-3.56548e-24
-9.00739e-24
9.50308e-20
4.47054e-25
7.48872e-24
9.50409e-20
-2.90319e-24
-1.0215e-23
9.503e-20
-5.71326e-24
6.37648e-24
9.50369e-20
2.97974e-24
-7.79148e-24
9.50365e-20
-2.28734e-23
-5.60607e-24
9.50283e-20
1.17268e-23
5.54588e-24
9.50505e-20
-4.18571e-23
-3.14462e-23
9.50234e-20
8.40143e-24
2.32309e-23
9.50618e-20
-4.26107e-23
-5.10359e-23
9.50302e-20
-8.74897e-24
2.56633e-23
9.50711e-20
-4.07355e-23
-5.63884e-23
9.50338e-20
-1.2356e-23
2.4239e-23
9.50651e-20
-1.97487e-23
-4.86062e-23
9.49703e-20
6.63583e-23
5.44942e-23
1.75487e-22
6.77761e-23
1.01568e-19
-3.42727e-21
7.50852e-23
1.04529e-19
-1.9033e-21
-2.61735e-21
1.0279e-19
-1.6188e-21
1.79318e-21
1.05118e-19
2.64046e-21
-2.42521e-21
1.01203e-19
-3.42641e-21
4.06688e-21
1.0754e-19
2.94488e-21
-6.63503e-21
9.85309e-20
-5.45751e-22
9.439e-21
1.08978e-19
-2.70583e-21
-1.08668e-20
9.90437e-20
5.75978e-21
1.03169e-20
1.06563e-19
-6.61045e-21
-7.75119e-21
1.0206e-19
5.63451e-21
4.67083e-21
1.04131e-19
-3.5383e-21
-2.10043e-21
1.03464e-19
1.77431e-21
7.06125e-22
1.03594e-19
-6.21936e-22
-1.18265e-22
1.03609e-19
1.88217e-22
3.51203e-24
1.03594e-19
-1.74986e-23
2.01315e-23
1.03609e-19
1.08718e-23
-2.63053e-24
1.03604e-19
6.23577e-24
6.2738e-24
1.03612e-19
4.73783e-24
-8.4387e-25
1.03608e-19
3.27936e-24
2.93677e-24
1.03614e-19
2.65811e-24
-8.07981e-25
1.03611e-19
1.25643e-24
1.83402e-24
1.03615e-19
1.65051e-24
-1.45298e-24
1.03612e-19
1.25691e-25
7.99995e-25
1.03616e-19
-2.481e-25
-2.45525e-24
1.03612e-19
-6.95038e-25
7.32054e-25
1.03616e-19
-6.6328e-25
-3.30488e-24
1.03611e-19
7.89094e-25
1.81229e-24
1.03615e-19
-4.78803e-25
-3.27487e-24
1.03609e-19
2.14368e-24
3.67569e-24
1.03614e-19
9.89589e-26
-4.13637e-24
1.03606e-19
3.14427e-24
5.01764e-24
1.03613e-19
-1.7896e-24
-6.16031e-24
1.03603e-19
1.86342e-24
6.38902e-24
1.03612e-19
-2.90162e-24
-8.9251e-24
1.036e-19
7.49463e-25
7.43214e-24
1.0361e-19
-2.35475e-24
-1.00447e-23
1.03599e-19
-5.62397e-24
6.22489e-24
1.03606e-19
3.22036e-24
-7.56406e-24
1.03605e-19
-2.27242e-23
-6.36733e-24
1.03597e-19
1.09563e-23
5.89181e-24
1.03619e-19
-4.15272e-23
-3.24403e-23
1.03592e-19
6.24745e-24
2.30108e-23
1.0363e-19
-4.23424e-23
-5.16354e-23
1.03599e-19
-1.14757e-23
2.44151e-23
1.0364e-19
-4.09331e-23
-5.66859e-23
1.03603e-19
-1.29458e-23
2.28014e-23
1.03634e-19
-1.67711e-23
-4.85348e-23
1.03537e-19
8.36831e-23
5.78831e-23
1.91993e-22
7.63015e-23
1.08229e-19
-4.11437e-21
-2.57659e-22
1.11283e-19
-2.23404e-21
-2.75507e-21
1.0951e-19
-1.6736e-21
1.78798e-21
1.11914e-19
2.62632e-21
-2.40605e-21
1.07912e-19
-3.41762e-21
3.9639e-21
1.14317e-19
3.02651e-21
-6.47837e-21
1.05283e-19
-7.90476e-22
9.27149e-21
1.15709e-19
-2.36374e-21
-1.07401e-20
1.05824e-19
5.36607e-21
1.02915e-20
1.13288e-19
-6.25396e-21
-7.78954e-21
1.08829e-19
5.38639e-21
4.73159e-21
1.10874e-19
-3.41216e-21
-2.14679e-21
1.10221e-19
1.71747e-21
7.34087e-22
1.10346e-19
-6.06043e-22
-1.28396e-22
1.10363e-19
1.83634e-22
5.79015e-24
1.10348e-19
-1.74064e-23
1.99541e-23
1.10363e-19
1.08875e-23
-2.62103e-24
1.10358e-19
5.9812e-24
6.37511e-24
1.10367e-19
4.9447e-24
-8.04019e-25
1.10363e-19
3.34145e-24
2.95802e-24
1.10369e-19
2.83505e-24
-7.42526e-25
1.10366e-19
1.38724e-24
1.86025e-24
1.1037e-19
1.97665e-24
-1.39563e-24
1.10366e-19
4.99002e-25
8.26192e-25
1.1037e-19
1.36794e-25
-2.38737e-24
1.10366e-19
-2.8064e-25
7.78635e-25
1.1037e-19
-1.55686e-25
-3.23476e-24
1.10365e-19
1.28983e-24
1.87515e-24
1.10369e-19
-2.93971e-26
-3.12239e-24
1.10363e-19
2.5863e-24
3.8107e-24
1.10368e-19
6.9109e-25
-4.02387e-24
1.1036e-19
3.66279e-24
5.13207e-24
1.10367e-19
-1.23513e-24
-6.01485e-24
1.10357e-19
2.25201e-24
6.49523e-24
1.10365e-19
-2.29646e-24
-8.78171e-24
1.10353e-19
1.19258e-24
7.46746e-24
1.10363e-19
-1.90139e-24
-9.831e-24
1.10352e-19
-5.24025e-24
6.19941e-24
1.10359e-19
3.21355e-24
-7.32298e-24
1.10358e-19
-2.18709e-23
-6.75921e-24
1.1035e-19
9.80999e-24
6.15236e-24
1.10371e-19
-4.03235e-23
-3.28682e-23
1.10345e-19
4.11236e-24
2.27889e-23
1.10383e-19
-4.13843e-23
-5.20291e-23
1.10351e-19
-1.32279e-23
2.35036e-23
1.10392e-19
-4.05926e-23
-5.71001e-23
1.10355e-19
-1.22388e-23
2.18356e-23
1.10387e-19
-1.38822e-23
-4.85223e-23
1.10289e-19
9.88861e-23
6.09819e-23
2.01484e-22
8.2848e-23
1.13504e-19
-4.52296e-21
-5.65501e-22
1.16627e-19
-2.54507e-21
-2.84335e-21
1.14812e-19
-1.69037e-21
1.79195e-21
1.17279e-19
2.55e-21
-2.40719e-21
1.13221e-19
-3.3041e-21
3.91544e-21
1.19652e-19
2.97922e-21
-6.37506e-21
1.10636e-19
-9.15411e-22
9.1334e-21
1.21016e-19
-2.0917e-21
-1.06242e-20
1.11181e-19
4.96641e-21
1.02478e-20
1.18609e-19
-5.85951e-21
-7.79172e-21
1.14169e-19
5.08454e-21
4.76518e-21
1.16207e-19
-3.24562e-21
-2.18042e-21
1.15557e-19
1.63631e-21
7.55178e-22
1.15682e-19
-5.81227e-22
-1.3671e-22
1.15699e-19
1.76348e-22
7.62495e-24
1.15684e-19
-1.70504e-23
1.97511e-23
1.15699e-19
1.07487e-23
-2.63417e-24
1.15694e-19
5.64899e-24
6.47765e-24
1.15703e-19
5.0749e-24
-8.03063e-25
1.15699e-19
3.36501e-24
2.98486e-24
1.15705e-19
2.96782e-24
-6.97792e-25
1.15702e-19
1.53872e-24
1.90086e-24
1.15706e-19
2.26528e-24
-1.36794e-24
1.15703e-19
8.5245e-25
8.93992e-25
1.15706e-19
5.09339e-25
-2.32478e-24
1.15702e-19
1.44959e-25
8.61457e-25
1.15706e-19
3.32308e-25
-3.19249e-24
1.15701e-19
1.78753e-24
1.94633e-24
1.15705e-19
4.07303e-25
-3.03054e-24
1.15698e-19
2.99528e-24
3.95966e-24
1.15704e-19
1.20465e-24
-3.91752e-24
1.15695e-19
4.13758e-24
5.24881e-24
1.15702e-19
-7.53947e-25
-5.85757e-24
1.15692e-19
2.6531e-24
6.61474e-24
1.15701e-19
-1.76988e-24
-8.65564e-24
1.15689e-19
1.69491e-24
7.52115e-24
1.15698e-19
-1.53383e-24
-9.62866e-24
1.15687e-19
-4.66989e-24
6.21545e-24
1.15694e-19
3.04333e-24
-7.12841e-24
1.15692e-19
-2.05826e-23
-6.9987e-24
1.15685e-19
8.48539e-24
6.34002e-24
1.15706e-19
-3.85312e-23
-3.30686e-23
1.15679e-19
2.19734e-24
2.24502e-23
1.15717e-19
-3.98108e-23
-5.22575e-23
1.15685e-19
-1.41349e-23
2.27666e-23
1.15726e-19
-3.96192e-23
-5.7449e-23
1.15689e-19
-1.07321e-23
2.13309e-23
1.15721e-19
-1.12912e-23
-4.83733e-23
1.15623e-19
1.11303e-22
6.3887e-23
2.05148e-22
8.75788e-23
1.17685e-19
-4.71137e-21
-7.57238e-22
1.20853e-19
-2.83438e-21
-2.91047e-21
1.18995e-19
-1.65973e-21
1.78816e-21
1.21511e-19
2.41682e-21
-2.39832e-21
1.17423e-19
-3.12236e-21
3.87669e-21
1.23849e-19
2.85182e-21
-6.28934e-21
1.14877e-19
-9.63445e-22
9.01282e-21
1.25202e-19
-1.85948e-21
-1.05301e-20
1.15409e-19
4.56586e-21
1.02062e-20
1.22817e-19
-5.44986e-21
-7.78711e-21
1.1838e-19
4.75345e-21
4.79086e-21
1.20423e-19
-3.053e-21
-2.21096e-21
1.1977e-19
1.54083e-21
7.72315e-22
1.19896e-19
-5.51055e-22
-1.43584e-22
1.19913e-19
1.67425e-22
9.10472e-24
1.19899e-19
-1.65046e-23
1.95655e-23
1.19913e-19
1.05396e-23
-2.67788e-24
1.19909e-19
5.26516e-24
6.56631e-24
1.19917e-19
5.15699e-24
-8.11331e-25
1.19914e-19
3.35051e-24
3.01113e-24
1.19919e-19
3.07272e-24
-6.66667e-25
1.19916e-19
1.67451e-24
1.96572e-24
1.1992e-19
2.52833e-24
-1.36013e-24
1.19917e-19
1.18186e-24
9.45189e-25
1.19921e-19
8.65643e-25
-2.27706e-24
1.19916e-19
5.48192e-25
9.49783e-25
1.1992e-19
7.97836e-25
-3.16885e-24
1.19915e-19
2.25089e-24
2.01831e-24
1.19919e-19
7.95706e-25
-2.93598e-24
1.19912e-19
3.34049e-24
4.09836e-24
1.19918e-19
1.60968e-24
-3.81169e-24
1.19909e-19
4.54041e-24
5.35665e-24
1.19916e-19
-3.4296e-25
-5.74027e-24
1.19906e-19
3.02999e-24
6.72563e-24
1.19914e-19
-1.30841e-24
-8.57135e-24
1.19902e-19
2.1984e-24
7.5867e-24
1.19912e-19
-1.26733e-24
-9.43446e-24
1.199e-19
-3.97422e-24
6.23044e-24
1.19907e-19
2.75498e-24
-6.95562e-24
1.19906e-19
-1.90238e-23
-7.14545e-24
1.19898e-19
7.14431e-24
6.44562e-24
1.19919e-19
-3.62438e-23
-3.32319e-23
1.19892e-19
5.85001e-25
2.21182e-23
1.1993e-19
-3.77514e-23
-5.23028e-23
1.19898e-19
-1.44027e-23
2.22702e-23
1.19939e-19
-3.80947e-23
-5.76225e-23
1.19901e-19
-8.78226e-24
2.11456e-23
1.19933e-19
-9.02168e-24
-4.82573e-23
1.19836e-19
1.20506e-22
6.66744e-23
2.04181e-22
9.07028e-23
1.20998e-19
-4.74136e-21
-8.4228e-22
1.2419e-19
-3.06524e-21
-2.99194e-21
1.22291e-19
-1.56576e-21
1.76582e-21
1.2484e-19
2.24004e-21
-2.38715e-21
1.20743e-19
-2.8932e-21
3.83764e-21
1.27143e-19
2.67536e-21
-6.2145e-21
1.18227e-19
-9.60035e-22
8.90547e-21
1.28498e-19
-1.64997e-21
-1.04533e-20
1.18739e-19
4.16616e-21
1.01717e-20
1.26138e-19
-5.03422e-21
-7.78568e-21
1.21695e-19
4.40549e-21
4.81489e-21
1.23748e-19
-2.84485e-21
-2.23736e-21
1.23088e-19
1.43675e-21
7.86905e-22
1.23217e-19
-5.17413e-22
-1.49591e-22
1.23234e-19
1.57476e-22
1.03096e-23
1.23219e-19
-1.58146e-23
1.94041e-23
1.23234e-19
1.03178e-23
-2.72987e-24
1.2323e-19
4.86335e-24
6.64713e-24
1.23238e-19
5.20628e-24
-8.27101e-25
1.23234e-19
3.29633e-24
3.03205e-24
1.2324e-19
3.15403e-24
-6.38998e-25
1.23237e-19
1.77272e-24
2.04437e-24
1.23241e-19
2.75088e-24
-1.35626e-24
1.23238e-19
1.47741e-24
9.78469e-25
1.23241e-19
1.19156e-24
-2.23887e-24
1.23237e-19
9.13511e-25
1.02412e-24
1.23241e-19
1.21379e-24
-3.15705e-24
1.23235e-19
2.63567e-24
2.09496e-24
1.2324e-19
1.09656e-24
-2.82449e-24
1.23233e-19
3.59698e-24
4.2384e-24
1.23238e-19
1.91155e-24
-3.75031e-24
1.2323e-19
4.8453e-24
5.44863e-24
1.23237e-19
-3.05412e-27
-5.64831e-24
1.23227e-19
3.34545e-24
6.84372e-24
1.23235e-19
-9.27764e-25
-8.51128e-24
1.23223e-19
2.64803e-24
7.66117e-24
1.23233e-19
-1.0941e-24
-9.26435e-24
1.23221e-19
-3.2256e-24
6.28031e-24
1.23228e-19
2.36263e-24
-6.80707e-24
1.23226e-19
-1.73448e-23
-7.20637e-24
1.23218e-19
5.82242e-24
6.56496e-24
1.23239e-19
-3.35573e-23
-3.33487e-23
1.23212e-19
-7.95869e-25
2.19144e-23
1.23249e-19
-3.53096e-23
-5.22413e-23
1.23217e-19
-1.42331e-23
2.20241e-23
1.23258e-19
-3.61304e-23
-5.76063e-23
1.2322e-19
-6.58262e-24
2.1121e-23
1.23253e-19
-6.98868e-24
-4.82459e-23
1.23157e-19
1.26362e-22
6.9344e-23
1.99624e-22
9.26732e-23
1.23619e-19
-4.65659e-21
-8.50935e-22
1.26813e-19
-3.2061e-21
-3.08447e-21
1.24879e-19
-1.40251e-21
1.73224e-21
1.27447e-19
2.03771e-21
-2.38065e-21
1.23358e-19
-2.63888e-21
3.80551e-21
1.2972e-19
2.4704e-21
-6.1487e-21
1.20864e-19
-9.25003e-22
8.81435e-21
1.31085e-19
-1.45401e-21
-1.03903e-20
1.21351e-19
3.76912e-21
1.01441e-20
1.28751e-19
-4.61652e-21
-7.78913e-21
1.24294e-19
4.04795e-21
4.83823e-21
1.26361e-19
-2.62765e-21
-2.26052e-21
1.25694e-19
1.32747e-21
7.99647e-22
1.25825e-19
-4.81269e-22
-1.55029e-22
1.25842e-19
1.46887e-22
1.13029e-23
1.25827e-19
-1.49986e-23
1.92675e-23
1.25842e-19
1.00853e-23
-2.76373e-24
1.25838e-19
4.44436e-24
6.7238e-24
1.25846e-19
5.23657e-24
-8.49154e-25
1.25842e-19
3.20592e-24
3.04726e-24
1.25848e-19
3.21043e-24
-6.15416e-25
1.25845e-19
1.83316e-24
2.11016e-24
1.25849e-19
2.92883e-24
-1.3562e-24
1.25846e-19
1.71364e-24
1.02224e-24
1.25849e-19
1.4696e-24
-2.20197e-24
1.25845e-19
1.22634e-24
1.08989e-24
1.25849e-19
1.557e-24
-3.13877e-24
1.25843e-19
2.92272e-24
2.1712e-24
1.25848e-19
1.31576e-24
-2.74922e-24
1.25841e-19
3.74015e-24
4.36958e-24
1.25846e-19
2.10065e-24
-3.7019e-24
1.25838e-19
5.02999e-24
5.53743e-24
1.25845e-19
2.08768e-25
-5.53097e-24
1.25835e-19
3.55789e-24
6.96735e-24
1.25843e-19
-6.62404e-25
-8.4405e-24
1.25831e-19
2.99908e-24
7.7521e-24
1.25841e-19
-1.01995e-24
-9.11858e-24
1.25829e-19
-2.54504e-24
6.40905e-24
1.25836e-19
1.88296e-24
-6.67917e-24
1.25834e-19
-1.56264e-23
-7.21833e-24
1.25826e-19
4.47355e-24
6.75392e-24
1.25846e-19
-3.06478e-23
-3.33413e-23
1.2582e-19
-1.91531e-24
2.17392e-23
1.25856e-19
-3.25557e-23
-5.21219e-23
1.25824e-19
-1.37199e-23
2.18951e-23
1.25864e-19
-3.38007e-23
-5.7497e-23
1.25826e-19
-4.27623e-24
2.12129e-23
1.2586e-19
-5.2274e-24
-4.82186e-23
1.25764e-19
1.28889e-22
7.18474e-23
1.9214e-22
9.39453e-23
1.25687e-19
-4.48447e-21
-8.10305e-22
1.28866e-19
-3.25537e-21
-3.16067e-21
1.26903e-19
-1.19846e-21
1.72097e-21
1.2948e-19
1.82431e-21
-2.37847e-21
1.25408e-19
-2.3767e-21
3.78054e-21
1.31728e-19
2.25034e-21
-6.09125e-21
1.22929e-19
-8.70773e-22
8.73739e-21
1.33107e-19
-1.26836e-21
-1.0337e-20
1.2339e-19
3.37688e-21
1.01215e-20
1.30798e-19
-4.19861e-21
-7.79678e-21
1.26323e-19
3.6854e-21
4.86056e-21
1.28405e-19
-2.40521e-21
-2.28118e-21
1.2773e-19
1.21505e-21
8.10842e-22
1.27865e-19
-4.43345e-22
-1.59821e-22
1.27881e-19
1.35885e-22
1.21298e-23
1.27866e-19
-1.40683e-23
1.91407e-23
1.27881e-19
9.8554e-24
-2.78023e-24
1.27876e-19
4.02646e-24
6.7993e-24
1.27885e-19
5.24786e-24
-8.68784e-25
1.27881e-19
3.07964e-24
3.05559e-24
1.27887e-19
3.24468e-24
-5.96781e-25
1.27884e-19
1.85322e-24
2.17177e-24
1.27888e-19
3.05688e-24
-1.36772e-24
1.27885e-19
1.87483e-24
1.06002e-24
1.27888e-19
1.68915e-24
-2.17437e-24
1.27884e-19
1.46072e-24
1.15885e-24
1.27888e-19
1.80973e-24
-3.13533e-24
1.27882e-19
3.09589e-24
2.23362e-24
1.27887e-19
1.45021e-24
-2.68512e-24
1.2788e-19
3.76798e-24
4.48947e-24
1.27886e-19
2.16624e-24
-3.67154e-24
1.27877e-19
5.0734e-24
5.61796e-24
1.27884e-19
2.83079e-25
-5.42197e-24
1.27874e-19
3.64897e-24
7.09113e-24
1.27883e-19
-5.25094e-25
-8.3878e-24
1.2787e-19
3.22611e-24
7.83582e-24
1.2788e-19
-1.04832e-24
-8.98388e-24
1.27868e-19
-1.94525e-24
6.53038e-24
1.27875e-19
1.31393e-24
-6.5747e-24
1.27873e-19
-1.38951e-23
-7.24485e-24
1.27865e-19
3.13917e-24
6.90749e-24
1.27885e-19
-2.76316e-23
-3.32568e-23
1.27858e-19
-2.73055e-24
2.15437e-23
1.27895e-19
-2.95309e-23
-5.20018e-23
1.27863e-19
-1.28867e-23
2.18212e-23
1.27902e-19
-3.11325e-23
-5.73433e-23
1.27864e-19
-2.00501e-24
2.14313e-23
1.27898e-19
-3.7584e-24
-4.8165e-23
1.27803e-19
1.28265e-22
7.41861e-23
1.82153e-22
9.49287e-23
1.27313e-19
-4.23937e-21
-7.43392e-22
1.30463e-19
-3.22287e-21
-3.21318e-21
1.28477e-19
-9.92654e-22
1.7425e-21
1.31056e-19
1.60874e-21
-2.37785e-21
1.27007e-19
-2.11267e-21
3.75566e-21
1.33284e-19
2.02303e-21
-6.04107e-21
1.24538e-19
-8.06252e-22
8.67398e-21
1.3468e-19
-1.0919e-21
-1.02915e-20
1.24975e-19
2.99166e-21
1.01025e-20
1.32393e-19
-3.78083e-21
-7.80769e-21
1.27899e-19
3.3205e-21
4.88179e-21
1.29997e-19
-2.17969e-21
-2.29971e-21
1.29313e-19
1.1008e-21
8.20682e-22
1.29451e-19
-4.04165e-22
-1.63973e-22
1.29466e-19
1.24622e-22
1.28369e-23
1.29452e-19
-1.30268e-23
1.90282e-23
1.29467e-19
9.62761e-24
-2.78906e-24
1.29462e-19
3.61061e-24
6.86443e-24
1.2947e-19
5.24171e-24
-8.85297e-25
1.29467e-19
2.91842e-24
3.06333e-24
1.29473e-19
3.2576e-24
-5.84666e-25
1.2947e-19
1.82896e-24
2.22815e-24
1.29474e-19
3.13709e-24
-1.38445e-24
1.2947e-19
1.96675e-24
1.08539e-24
1.29474e-19
1.84759e-24
-2.1563e-24
1.2947e-19
1.60746e-24
1.22295e-24
1.29474e-19
1.97739e-24
-3.14466e-24
1.29468e-19
3.14781e-24
2.29576e-24
1.29473e-19
1.47672e-24
-2.61886e-24
1.29466e-19
3.67053e-24
4.59714e-24
1.29472e-19
2.11569e-24
-3.65962e-24
1.29464e-19
4.97401e-24
5.68842e-24
1.29471e-19
2.41563e-25
-5.35658e-24
1.2946e-19
3.60775e-24
7.20274e-24
1.29469e-19
-5.06068e-25
-8.35738e-24
1.29457e-19
3.32775e-24
7.90609e-24
1.29467e-19
-1.20197e-24
-8.85044e-24
1.29455e-19
-1.43684e-24
6.63525e-24
1.29461e-19
6.60986e-25
-6.4849e-24
1.2946e-19
-1.21612e-23
-7.2776e-24
1.29451e-19
1.86372e-24
7.00538e-24
1.29472e-19
-2.45244e-23
-3.31934e-23
1.29444e-19
-3.26211e-24
2.13938e-23
1.2948e-19
-2.62705e-23
-5.18801e-23
1.29448e-19
-1.17773e-23
2.17919e-23
1.29487e-19
-2.81963e-23
-5.71475e-23
1.29449e-19
9.96001e-26
2.17631e-23
1.29483e-19
-2.60912e-24
-4.80872e-23
1.29389e-19
1.24732e-22
7.63079e-23
1.6986e-22
9.58364e-23
1.28586e-19
-3.927e-21
-6.67147e-22
1.31698e-19
-3.1192e-21
-3.24574e-21
1.29695e-19
-8.00022e-22
1.77308e-21
1.3227e-19
1.39588e-21
-2.37668e-21
1.28247e-19
-1.85008e-21
3.73159e-21
1.34482e-19
1.79263e-21
-5.99735e-21
1.25784e-19
-7.37414e-22
8.6226e-21
1.35896e-19
-9.23837e-22
-1.0253e-20
1.26199e-19
2.61478e-21
1.00864e-20
1.3363e-19
-3.36243e-21
-7.82127e-21
1.29116e-19
2.9546e-21
4.90178e-21
1.31228e-19
-1.95244e-21
-2.31627e-21
1.30537e-19
9.85526e-22
8.29312e-22
1.30677e-19
-3.64004e-22
-1.6765e-22
1.30692e-19
1.13187e-22
1.34332e-23
1.30678e-19
-1.18839e-23
1.89246e-23
1.30693e-19
9.41803e-24
-2.79129e-24
1.30688e-19
3.20375e-24
6.93639e-24
1.30696e-19
5.22065e-24
-9.01973e-25
1.30693e-19
2.72023e-24
3.06957e-24
1.30699e-19
3.25506e-24
-5.79461e-25
1.30696e-19
1.76165e-24
2.2797e-24
1.307e-19
3.16585e-24
-1.40937e-24
1.30696e-19
1.98548e-24
1.10059e-24
1.307e-19
1.94356e-24
-2.15062e-24
1.30696e-19
1.6664e-24
1.27259e-24
1.307e-19
2.05399e-24
-3.17065e-24
1.30695e-19
3.07742e-24
2.33966e-24
1.30699e-19
1.3977e-24
-2.5594e-24
1.30693e-19
3.45111e-24
4.69958e-24
1.30698e-19
1.95802e-24
-3.67311e-24
1.3069e-19
4.73437e-24
5.73975e-24
1.30697e-19
9.26958e-26
-5.30553e-24
1.30687e-19
3.43946e-24
7.30319e-24
1.30696e-19
-6.04898e-25
-8.34651e-24
1.30684e-19
3.29676e-24
7.96506e-24
1.30693e-19
-1.48241e-24
-8.72145e-24
1.30682e-19
-1.03514e-24
6.74646e-24
1.30688e-19
-4.72e-26
-6.45013e-24
1.30687e-19
-1.04372e-23
-7.3235e-24
1.30678e-19
6.6857e-25
7.06571e-24
1.30698e-19
-2.13104e-23
-3.31769e-23
1.30671e-19
-3.66187e-24
2.13898e-23
1.30707e-19
-2.28537e-23
-5.17293e-23
1.30674e-19
-1.04343e-23
2.18165e-23
1.30713e-19
-2.50373e-23
-5.69236e-23
1.30675e-19
2.10819e-24
2.20162e-23
1.30709e-19
-1.7699e-24
-4.79956e-23
1.30616e-19
1.18617e-22
7.82221e-23
1.5543e-22
9.67952e-23
1.29578e-19
-3.54765e-21
-5.94358e-22
1.32646e-19
-2.95523e-21
-3.2626e-21
1.30631e-19
-6.31228e-22
1.80941e-21
1.33199e-19
1.18789e-21
-2.37421e-21
1.29201e-19
-1.59447e-21
3.71312e-21
1.354e-19
1.5618e-21
-5.96025e-21
1.26743e-19
-6.68392e-22
8.5818e-21
1.3683e-19
-7.62941e-22
-1.02212e-20
1.27137e-19
2.24667e-21
1.00726e-20
1.34581e-19
-2.94243e-21
-7.83633e-21
1.30049e-19
2.58863e-21
4.9201e-21
1.32175e-19
-1.72404e-21
-2.33115e-21
1.31477e-19
8.69676e-22
8.36913e-22
1.31619e-19
-3.22999e-22
-1.70925e-22
1.31634e-19
1.01656e-22
1.39427e-23
1.31619e-19
-1.06427e-23
1.88336e-23
1.31634e-19
9.21485e-24
-2.78192e-24
1.3163e-19
2.79363e-24
7.00888e-24
1.31638e-19
5.1898e-24
-9.19254e-25
1.31634e-19
2.49277e-24
3.071e-24
1.3164e-19
3.23966e-24
-5.80185e-25
1.31637e-19
1.65126e-24
2.3262e-24
1.31642e-19
3.15239e-24
-1.44136e-24
1.31638e-19
1.93687e-24
1.11118e-24
1.31642e-19
1.98255e-24
-2.15503e-24
1.31638e-19
1.64524e-24
1.30966e-24
1.31641e-19
2.05035e-24
-3.20432e-24
1.31636e-19
2.90021e-24
2.37148e-24
1.31641e-19
1.22182e-24
-2.5204e-24
1.31635e-19
3.11503e-24
4.78482e-24
1.3164e-19
1.70803e-24
-3.70015e-24
1.31632e-19
4.36791e-24
5.77882e-24
1.31639e-19
-1.7872e-25
-5.24971e-24
1.31629e-19
3.14424e-24
7.39157e-24
1.31638e-19
-8.09827e-25
-8.34874e-24
1.31626e-19
3.13147e-24
8.0239e-24
1.31636e-19
-1.87611e-24
-8.62112e-24
1.31624e-19
-7.56168e-25
6.85408e-24
1.31631e-19
-7.86623e-25
-6.44521e-24
1.31629e-19
-8.71072e-24
-7.3786e-24
1.31621e-19
-3.87632e-25
7.0464e-24
1.31641e-19
-1.80267e-23
-3.31519e-23
1.31613e-19
-3.95107e-24
2.14094e-23
1.31648e-19
-1.9332e-23
-5.15658e-23
1.31616e-19
-8.92321e-24
2.18914e-23
1.31655e-19
-2.16804e-23
-5.67282e-23
1.31616e-19
4.04539e-24
2.22342e-23
1.31651e-19
-1.1893e-24
-4.79448e-23
1.31558e-19
1.10221e-22
7.99098e-23
1.39026e-22
9.77435e-23
1.30345e-19
-3.10243e-21
-5.29801e-22
1.33369e-19
-2.73689e-21
-3.27246e-21
1.31345e-19
-4.90225e-22
1.84605e-21
1.33904e-19
9.86141e-22
-2.37116e-21
1.2993e-19
-1.34715e-21
3.6977e-21
1.36097e-19
1.33607e-21
-5.93351e-21
1.27474e-19
-6.01419e-22
8.54956e-21
1.37541e-19
-6.0816e-22
-1.0195e-20
1.27851e-19
1.88733e-21
1.00607e-20
1.35308e-19
-2.52057e-21
-7.85121e-21
1.30759e-19
2.22219e-21
4.93739e-21
1.32897e-19
-1.49417e-21
-2.34511e-21
1.32192e-19
7.53518e-22
8.43547e-22
1.32337e-19
-2.81256e-22
-1.73821e-22
1.32351e-19
9.00652e-23
1.43694e-23
1.32336e-19
-9.31021e-24
1.87462e-23
1.32351e-19
9.0239e-24
-2.76015e-24
1.32347e-19
2.39282e-24
7.08043e-24
1.32355e-19
5.15301e-24
-9.36663e-25
1.32352e-19
2.23996e-24
3.0674e-24
1.32358e-19
3.21163e-24
-5.80636e-25
1.32355e-19
1.49965e-24
2.36944e-24
1.32359e-19
3.09661e-24
-1.4798e-24
1.32355e-19
1.82109e-24
1.1139e-24
1.32359e-19
1.96493e-24
-2.1668e-24
1.32355e-19
1.5475e-24
1.33553e-24
1.32359e-19
1.96606e-24
-3.25086e-24
1.32354e-19
2.62409e-24
2.38587e-24
1.32359e-19
9.65945e-25
-2.4939e-24
1.32352e-19
2.68473e-24
4.85437e-24
1.32358e-19
1.36554e-24
-3.73227e-24
1.3235e-19
3.87577e-24
5.81167e-24
1.32357e-19
-5.34998e-25
-5.22727e-24
1.32347e-19
2.73452e-24
7.47244e-24
1.32356e-19
-1.1232e-24
-8.35662e-24
1.32344e-19
2.84009e-24
8.06594e-24
1.32354e-19
-2.36204e-24
-8.53927e-24
1.32343e-19
-5.85415e-25
6.94747e-24
1.32349e-19
-1.56556e-24
-6.45311e-24
1.32347e-19
-7.01808e-24
-7.41657e-24
1.32339e-19
-1.26979e-24
6.97505e-24
1.32359e-19
-1.47307e-23
-3.30879e-23
1.32331e-19
-4.14106e-24
2.14181e-23
1.32366e-19
-1.5732e-23
-5.14266e-23
1.32333e-19
-7.28615e-24
2.2007e-23
1.32372e-19
-1.82276e-23
-5.64564e-23
1.32334e-19
5.74841e-24
2.26199e-23
1.32369e-19
-8.02866e-25
-4.79288e-23
1.32276e-19
9.98889e-23