/*--------------------------------*- C++ -*----------------------------------*\
| =========                 |                                                 |
| \\      /  F ield         | OpenFOAM: The Open Source CFD Toolbox           |
|  \\    /   O peration     | Version:  2412                                  |
|   \\  /    A nd           | Website:  www.openfoam.com                      |
|    \\/     M anipulation  |                                                 |
\*---------------------------------------------------------------------------*/
FoamFile
{
    version     2.0;
    format      ascii;
    arch        "LSB;label=32;scalar=64";
    class       volVectorField;
    location    "2e-05";
    object      U;
}
// * * * * * * * * * * * * * * * * * * * * * * * * * * * * * * * * * * * * * //

dimensions      [0 1 -1 0 0 0 0];

internalField   nonuniform List<vector> 
96800
(
(3.66831e-07 1.83008e-09 1.82804e-09)
(3.86033e-07 -1.32573e-09 -1.32571e-09)
(3.71186e-07 1.55656e-09 1.55652e-09)
(3.93584e-07 -1.93626e-09 -1.93541e-09)
(3.60734e-07 2.80418e-09 2.8042e-09)
(3.98094e-07 -3.37887e-09 -3.37861e-09)
(3.69092e-07 4.04882e-09 4.04872e-09)
(3.73326e-07 -4.4875e-09 -4.48743e-09)
(4.01388e-07 4.35647e-09 4.3563e-09)
(3.47796e-07 -3.60833e-09 -3.60837e-09)
(4.08364e-07 2.54269e-09 2.54282e-09)
(3.58382e-07 -1.46891e-09 -1.46899e-09)
(3.89967e-07 6.91726e-10 6.9182e-10)
(3.74573e-07 -2.43401e-10 -2.43663e-10)
(3.80317e-07 6.98921e-11 6.99382e-11)
(3.78782e-07 -7.835e-12 -7.94931e-12)
(3.79055e-07 -4.03847e-15 -5.56202e-15)
(3.79068e-07 3.92975e-12 3.83824e-12)
(3.79051e-07 -1.22794e-12 -1.22925e-12)
(3.79081e-07 2.52193e-12 2.46796e-12)
(3.79074e-07 -1.02227e-12 -9.78491e-13)
(3.79089e-07 1.78215e-12 1.7838e-12)
(3.7909e-07 -1.0894e-12 -1.05061e-12)
(3.79095e-07 1.39118e-12 1.38248e-12)
(3.79101e-07 -1.45035e-12 -1.41343e-12)
(3.79099e-07 1.33193e-12 1.33411e-12)
(3.79108e-07 -1.85966e-12 -1.81975e-12)
(3.791e-07 1.71856e-12 1.69513e-12)
(3.79114e-07 -2.22815e-12 -2.14827e-12)
(3.79098e-07 2.38443e-12 2.37881e-12)
(3.79118e-07 -2.86066e-12 -2.83248e-12)
(3.79095e-07 3.13582e-12 3.11207e-12)
(3.7912e-07 -4.00048e-12 -3.92239e-12)
(3.79092e-07 3.88191e-12 3.89485e-12)
(3.79118e-07 -5.11579e-12 -5.08262e-12)
(3.79094e-07 4.49693e-12 4.46248e-12)
(3.79102e-07 -5.5194e-12 -5.43696e-12)
(3.7912e-07 3.48458e-12 3.47714e-12)
(3.79055e-07 -3.19501e-12 -3.15864e-12)
(3.79193e-07 -2.35187e-12 -2.40837e-12)
(3.78996e-07 4.20614e-12 4.25276e-12)
(3.79248e-07 -1.12761e-11 -1.13674e-11)
(3.79027e-07 1.18638e-11 1.18969e-11)
(3.79229e-07 -1.79467e-11 -1.80136e-11)
(3.79117e-07 1.58592e-11 1.59501e-11)
(3.79241e-07 -2.18018e-11 -2.18451e-11)
(3.79176e-07 1.7668e-11 1.76315e-11)
(3.79221e-07 -2.21607e-11 -2.22589e-11)
(3.79131e-07 1.94134e-11 1.93944e-11)
(3.78507e-07 3.32853e-12 2.20507e-12)
(8.00834e-07 1.39347e-09 1.43431e-08)
(8.43504e-07 -2.81393e-09 -7.08238e-09)
(8.11901e-07 2.22992e-09 7.61577e-09)
(8.57776e-07 -2.56902e-09 -7.97505e-09)
(7.94774e-07 3.47265e-09 7.54356e-09)
(8.61721e-07 -4.81133e-09 -7.25094e-09)
(8.15785e-07 7.34747e-09 6.5568e-09)
(8.11144e-07 -9.54074e-09 -6.59224e-09)
(8.77375e-07 1.02865e-08 6.22974e-09)
(7.65126e-07 -8.946e-09 -5.48786e-09)
(8.86814e-07 6.41285e-09 4.20832e-09)
(7.88663e-07 -3.61943e-09 -2.61549e-09)
(8.49796e-07 1.65671e-09 1.32404e-09)
(8.20342e-07 -5.6074e-10 -4.92452e-10)
(8.31239e-07 1.5657e-10 1.54793e-10)
(8.28365e-07 -1.09825e-11 -1.79466e-11)
(8.28871e-07 2.32909e-12 6.25851e-12)
(8.28904e-07 8.49949e-12 7.82751e-12)
(8.2887e-07 -8.95151e-13 1.19338e-12)
(8.2893e-07 4.79573e-12 4.47993e-12)
(8.28915e-07 -1.13782e-12 3.08334e-13)
(8.28945e-07 2.87037e-12 2.77487e-12)
(8.28946e-07 -1.74057e-12 -7.60128e-13)
(8.28954e-07 1.6873e-12 1.72528e-12)
(8.28965e-07 -3.07967e-12 -2.05536e-12)
(8.28959e-07 1.27367e-12 1.47117e-12)
(8.28977e-07 -3.94062e-12 -3.36466e-12)
(8.28956e-07 2.3661e-12 2.09254e-12)
(8.28985e-07 -4.32011e-12 -4.54685e-12)
(8.28949e-07 4.03364e-12 3.43493e-12)
(8.28989e-07 -5.29125e-12 -6.38295e-12)
(8.28936e-07 5.57661e-12 5.04759e-12)
(8.28988e-07 -7.6293e-12 -8.8832e-12)
(8.28925e-07 6.50748e-12 6.91956e-12)
(8.28979e-07 -9.96412e-12 -1.16994e-11)
(8.28925e-07 7.15887e-12 8.36749e-12)
(8.28945e-07 -1.02587e-11 -1.32502e-11)
(8.28971e-07 3.8929e-12 7.09564e-12)
(8.28848e-07 -4.3345e-12 -9.87749e-12)
(8.29111e-07 -1.24618e-11 1.17375e-12)
(8.28725e-07 1.17233e-11 2.38387e-13)
(8.29229e-07 -3.75422e-11 -8.40419e-12)
(8.2877e-07 2.48725e-11 1.22393e-11)
(8.29209e-07 -5.04338e-11 -1.72594e-11)
(8.28943e-07 2.35557e-11 2.67482e-11)
(8.29238e-07 -5.52318e-11 -3.03983e-11)
(8.29068e-07 2.48006e-11 4.36561e-11)
(8.29197e-07 -4.84918e-11 -4.35428e-11)
(8.2897e-07 4.78837e-11 6.23003e-11)
(8.27784e-07 7.34322e-11 -4.09253e-11)
(1.10006e-06 -2.97506e-09 1.45399e-08)
(1.1606e-06 -1.85244e-09 -8.59487e-09)
(1.11663e-06 -3.91245e-10 9.30339e-09)
(1.1787e-06 1.03924e-09 -9.64019e-09)
(1.09776e-06 -5.76673e-10 8.90551e-09)
(1.17821e-06 -1.02926e-09 -7.76937e-09)
(1.13115e-06 5.04149e-09 6.2264e-09)
(1.10916e-06 -9.63815e-09 -5.95758e-09)
(1.20949e-06 1.29231e-08 6.21358e-09)
(1.05511e-06 -1.26014e-08 -5.91758e-09)
(1.2151e-06 9.82554e-09 4.83279e-09)
(1.09004e-06 -5.85326e-09 -3.19754e-09)
(1.16599e-06 2.81363e-09 1.68377e-09)
(1.13028e-06 -9.74503e-10 -6.41295e-10)
(1.14319e-06 2.89249e-10 2.04447e-10)
(1.13989e-06 -2.44303e-11 -2.25857e-11)
(1.14045e-06 1.27631e-11 9.32088e-12)
(1.14051e-06 1.17133e-11 9.43392e-12)
(1.14047e-06 3.98314e-12 2.79461e-12)
(1.14055e-06 5.90152e-12 5.26206e-12)
(1.14053e-06 1.84519e-12 1.34364e-12)
(1.14057e-06 2.79897e-12 3.31994e-12)
(1.14057e-06 -1.19887e-14 -5.91689e-14)
(1.14058e-06 3.45074e-13 2.12663e-12)
(1.1406e-06 -2.78751e-12 -1.76245e-12)
(1.14059e-06 -9.09099e-13 1.52315e-12)
(1.14061e-06 -4.0973e-12 -3.23744e-12)
(1.14058e-06 1.05363e-12 2.30117e-12)
(1.14062e-06 -3.6283e-12 -4.40932e-12)
(1.14056e-06 3.46825e-12 3.76344e-12)
(1.14062e-06 -3.81751e-12 -6.34995e-12)
(1.14054e-06 5.01477e-12 5.53099e-12)
(1.14061e-06 -6.93951e-12 -9.23775e-12)
(1.14052e-06 4.56416e-12 7.39378e-12)
(1.1406e-06 -9.89978e-12 -1.23845e-11)
(1.14052e-06 3.67533e-12 8.89872e-12)
(1.14055e-06 -8.79256e-12 -1.36789e-11)
(1.14057e-06 -4.51138e-12 7.72811e-12)
(1.14042e-06 1.06551e-12 -1.00318e-11)
(1.14074e-06 -3.19099e-11 -1.14176e-13)
(1.14025e-06 2.02036e-11 6.70588e-13)
(1.14091e-06 -6.74877e-11 -9.67721e-12)
(1.14028e-06 2.64359e-11 9.2771e-12)
(1.14089e-06 -7.75829e-11 -1.82025e-11)
(1.1405e-06 9.5894e-12 2.54507e-11)
(1.14093e-06 -7.86987e-11 -3.61889e-11)
(1.14066e-06 -8.06339e-13 4.68863e-11)
(1.14087e-06 -5.66483e-11 -5.23422e-11)
(1.14054e-06 5.06666e-11 6.76595e-11)
(1.13907e-06 1.96214e-10 -3.57303e-11)
(1.32287e-06 -3.31857e-09 1.25424e-08)
(1.3962e-06 -1.63419e-09 -8.03832e-09)
(1.34417e-06 -2.5094e-09 9.14136e-09)
(1.41609e-06 4.10504e-09 -9.4838e-09)
(1.32628e-06 -4.4865e-09 8.96466e-09)
(1.41029e-06 2.72986e-09 -7.7484e-09)
(1.36932e-06 2.26832e-09 6.15179e-09)
(1.3296e-06 -8.36056e-09 -5.68934e-09)
(1.45624e-06 1.34177e-08 6.23254e-09)
(1.2733e-06 -1.40973e-08 -6.05551e-09)
(1.45729e-06 1.14518e-08 5.04488e-09)
(1.31623e-06 -6.97735e-09 -3.36486e-09)
(1.40071e-06 3.41226e-09 1.77403e-09)
(1.36148e-06 -1.17389e-09 -6.72809e-10)
(1.37552e-06 3.52955e-10 2.14593e-10)
(1.37199e-06 -3.09049e-11 -2.45418e-11)
(1.37259e-06 1.82729e-11 9.92047e-12)
(1.37266e-06 1.27225e-11 9.86881e-12)
(1.37261e-06 6.74352e-12 2.94292e-12)
(1.3727e-06 6.08425e-12 5.61367e-12)
(1.37268e-06 3.47742e-12 1.4925e-12)
(1.37273e-06 2.31737e-12 3.57426e-12)
(1.37273e-06 1.11021e-12 7.62012e-14)
(1.37274e-06 -6.35809e-13 2.45799e-12)
(1.37275e-06 -2.36244e-12 -1.61249e-12)
(1.37274e-06 -2.22034e-12 1.90278e-12)
(1.37276e-06 -3.7473e-12 -3.00945e-12)
(1.37272e-06 1.48559e-13 2.57939e-12)
(1.37277e-06 -3.28021e-12 -3.9692e-12)
(1.3727e-06 2.81216e-12 4.23175e-12)
(1.37276e-06 -2.93964e-12 -6.02766e-12)
(1.37268e-06 4.41617e-12 5.94011e-12)
(1.37276e-06 -6.36577e-12 -8.88414e-12)
(1.37265e-06 3.04584e-12 7.65308e-12)
(1.37273e-06 -9.19513e-12 -1.19968e-11)
(1.37263e-06 1.21196e-12 8.81288e-12)
(1.37268e-06 -7.80088e-12 -1.32365e-11)
(1.37268e-06 -9.85868e-12 7.16018e-12)
(1.37252e-06 4.09815e-12 -9.53853e-12)
(1.37288e-06 -4.26421e-11 -1.36131e-12)
(1.37232e-06 2.41419e-11 1.00422e-12)
(1.37307e-06 -8.13577e-11 -1.15915e-11)
(1.37233e-06 2.38629e-11 8.89461e-12)
(1.37308e-06 -8.61831e-11 -2.0527e-11)
(1.37257e-06 -4.47632e-12 2.48345e-11)
(1.37311e-06 -8.2916e-11 -3.98709e-11)
(1.37276e-06 -1.69006e-11 4.51735e-11)
(1.37305e-06 -5.02472e-11 -5.38008e-11)
(1.37263e-06 7.81682e-11 6.66078e-11)
(1.37101e-06 2.81052e-10 -2.80377e-11)
(1.49465e-06 -3.94352e-09 1.25649e-08)
(1.57694e-06 -2.65967e-09 -7.73489e-09)
(1.52021e-06 -3.04891e-09 8.93267e-09)
(1.59732e-06 5.1535e-09 -9.22873e-09)
(1.50456e-06 -6.36031e-09 8.74384e-09)
(1.58656e-06 4.93307e-09 -7.52291e-09)
(1.55453e-06 3.3925e-10 6.07471e-09)
(1.49889e-06 -6.98329e-09 -5.57666e-09)
(1.64542e-06 1.2926e-08 6.22044e-09)
(1.44294e-06 -1.42747e-08 -6.14489e-09)
(1.64237e-06 1.18925e-08 5.16507e-09)
(1.4914e-06 -7.35163e-09 -3.44643e-09)
(1.58109e-06 3.64157e-09 1.81673e-09)
(1.5397e-06 -1.26073e-09 -6.9116e-10)
(1.55446e-06 3.80374e-10 2.20622e-10)
(1.55077e-06 -3.40654e-11 -2.61191e-11)
(1.55139e-06 2.10078e-11 1.03214e-11)
(1.55148e-06 1.30492e-11 1.00923e-11)
(1.55143e-06 8.45953e-12 3.02511e-12)
(1.55152e-06 6.3613e-12 5.88723e-12)
(1.5515e-06 4.55345e-12 1.52369e-12)
(1.55155e-06 2.26651e-12 3.63867e-12)
(1.55155e-06 2.13774e-12 2.493e-14)
(1.55156e-06 -7.15609e-13 2.2501e-12)
(1.55157e-06 -1.72408e-12 -1.6938e-12)
(1.55155e-06 -2.41493e-12 1.88248e-12)
(1.55158e-06 -2.95778e-12 -3.12001e-12)
(1.55153e-06 2.22958e-13 2.56825e-12)
(1.55158e-06 -2.57352e-12 -4.25592e-12)
(1.55151e-06 3.04659e-12 4.19473e-12)
(1.55157e-06 -1.834e-12 -6.18457e-12)
(1.55147e-06 4.83539e-12 5.91848e-12)
(1.55156e-06 -5.50995e-12 -8.8928e-12)
(1.55144e-06 2.84303e-12 7.51995e-12)
(1.55153e-06 -8.03025e-12 -1.20425e-11)
(1.55142e-06 6.33761e-13 8.58323e-12)
(1.55147e-06 -6.60866e-12 -1.32526e-11)
(1.55147e-06 -1.16431e-11 6.61654e-12)
(1.5513e-06 5.64162e-12 -9.13808e-12)
(1.55167e-06 -4.64847e-11 -2.18502e-12)
(1.55107e-06 2.45774e-11 1.06642e-12)
(1.55189e-06 -8.54486e-11 -1.23686e-11)
(1.55107e-06 1.95478e-11 8.85553e-12)
(1.5519e-06 -8.70944e-11 -2.08445e-11)
(1.55132e-06 -1.44571e-11 2.43169e-11)
(1.55195e-06 -8.2806e-11 -4.00288e-11)
(1.55152e-06 -2.38029e-11 4.42445e-11)
(1.55188e-06 -4.32629e-11 -5.30415e-11)
(1.55139e-06 1.16537e-10 6.69727e-11)
(1.54971e-06 3.37557e-10 -2.47197e-11)
(1.62962e-06 -6.03901e-09 1.27149e-08)
(1.71777e-06 -3.55976e-09 -7.65027e-09)
(1.6588e-06 -3.21929e-09 8.84078e-09)
(1.73767e-06 5.37601e-09 -9.06791e-09)
(1.64581e-06 -6.96669e-09 8.56267e-09)
(1.72276e-06 5.88034e-09 -7.41801e-09)
(1.70038e-06 -8.02428e-10 6.03137e-09)
(1.63137e-06 -5.92638e-09 -5.45727e-09)
(1.79259e-06 1.21747e-08 6.17874e-09)
(1.57681e-06 -1.38492e-08 -6.19214e-09)
(1.78628e-06 1.1734e-08 5.23564e-09)
(1.62899e-06 -7.33429e-09 -3.49339e-09)
(1.72202e-06 3.66503e-09 1.84678e-09)
(1.67921e-06 -1.27902e-09 -7.07391e-10)
(1.69448e-06 3.86548e-10 2.26183e-10)
(1.69066e-06 -3.54106e-11 -2.77315e-11)
(1.69131e-06 2.20558e-11 1.0613e-11)
(1.6914e-06 1.29364e-11 1.01922e-11)
(1.69135e-06 9.40621e-12 3.01863e-12)
(1.69145e-06 6.59884e-12 6.02209e-12)
(1.69142e-06 5.21375e-12 1.53136e-12)
(1.69147e-06 2.42948e-12 3.66177e-12)
(1.69147e-06 3.0083e-12 -4.50117e-15)
(1.69148e-06 -1.36284e-13 1.97217e-12)
(1.69149e-06 -9.21563e-13 -1.65135e-12)
(1.69147e-06 -1.845e-12 1.82688e-12)
(1.6915e-06 -1.91051e-12 -3.17275e-12)
(1.69145e-06 1.09077e-12 2.59732e-12)
(1.69149e-06 -1.50065e-12 -4.38656e-12)
(1.69142e-06 3.87989e-12 4.20058e-12)
(1.69148e-06 -4.58235e-13 -6.14771e-12)
(1.69137e-06 5.85776e-12 5.90036e-12)
(1.69147e-06 -4.29639e-12 -8.83927e-12)
(1.69133e-06 3.3987e-12 7.44713e-12)
(1.69144e-06 -6.61452e-12 -1.20326e-11)
(1.69131e-06 1.12095e-12 8.51042e-12)
(1.69136e-06 -5.34814e-12 -1.31904e-11)
(1.69135e-06 -1.17362e-11 6.38196e-12)
(1.69119e-06 6.45851e-12 -8.77913e-12)
(1.69156e-06 -4.6978e-11 -2.51034e-12)
(1.69094e-06 2.34276e-11 1.25485e-12)
(1.69179e-06 -8.56759e-11 -1.2502e-11)
(1.69092e-06 1.49919e-11 9.23946e-12)
(1.69182e-06 -8.70141e-11 -2.03431e-11)
(1.69116e-06 -2.1182e-11 2.39452e-11)
(1.69187e-06 -8.3439e-11 -3.93824e-11)
(1.69138e-06 -2.65622e-11 4.38078e-11)
(1.69179e-06 -3.72243e-11 -5.24014e-11)
(1.69125e-06 1.53956e-10 6.82018e-11)
(1.68956e-06 3.78279e-10 -2.24263e-11)
(1.73674e-06 -7.84741e-09 1.2845e-08)
(1.82818e-06 -4.25766e-09 -7.70572e-09)
(1.76886e-06 -3.36372e-09 8.85812e-09)
(1.84702e-06 5.39345e-09 -9.03381e-09)
(1.75841e-06 -7.05569e-09 8.45669e-09)
(1.82899e-06 6.17955e-09 -7.44364e-09)
(1.81579e-06 -1.43299e-09 5.87164e-09)
(1.73605e-06 -5.14061e-09 -5.32213e-09)
(1.90783e-06 1.13685e-08 6.11591e-09)
(1.68311e-06 -1.31675e-08 -6.2009e-09)
(1.89912e-06 1.1292e-08 5.2751e-09)
(1.73771e-06 -7.12411e-09 -3.52133e-09)
(1.833e-06 3.57929e-09 1.87212e-09)
(1.78917e-06 -1.25826e-09 -7.22661e-10)
(1.80483e-06 3.80836e-10 2.31587e-10)
(1.8009e-06 -3.56447e-11 -2.93704e-11)
(1.80158e-06 2.22942e-11 1.08475e-11)
(1.80167e-06 1.25194e-11 1.02184e-11)
(1.80162e-06 9.93487e-12 2.9953e-12)
(1.80172e-06 6.77263e-12 6.06999e-12)
(1.80169e-06 5.63559e-12 1.51509e-12)
(1.80174e-06 2.68184e-12 3.66941e-12)
(1.80174e-06 3.72541e-12 -2.00819e-14)
(1.80174e-06 6.35202e-13 1.96407e-12)
(1.80176e-06 -1.06987e-13 -1.59989e-12)
(1.80173e-06 -1.02176e-12 1.84481e-12)
(1.80176e-06 -8.33844e-13 -3.12246e-12)
(1.80171e-06 2.1376e-12 2.5687e-12)
(1.80175e-06 -4.96787e-13 -4.28182e-12)
(1.80167e-06 4.84823e-12 4.30766e-12)
(1.80174e-06 8.32786e-13 -6.15096e-12)
(1.80163e-06 6.97383e-12 5.96312e-12)
(1.80172e-06 -3.03964e-12 -8.85255e-12)
(1.80158e-06 4.19779e-12 7.45595e-12)
(1.80169e-06 -5.27203e-12 -1.18945e-11)
(1.80155e-06 1.95456e-12 8.50933e-12)
(1.80161e-06 -4.30084e-12 -1.30276e-11)
(1.80159e-06 -1.11767e-11 6.28896e-12)
(1.80142e-06 6.66269e-12 -8.45009e-12)
(1.8018e-06 -4.57556e-11 -2.58618e-12)
(1.80116e-06 2.13422e-11 1.43735e-12)
(1.80204e-06 -8.38478e-11 -1.23692e-11)
(1.80113e-06 1.04378e-11 1.0224e-11)
(1.80208e-06 -8.57961e-11 -1.97468e-11)
(1.80136e-06 -2.56492e-11 2.42213e-11)
(1.80213e-06 -8.35299e-11 -3.89385e-11)
(1.80158e-06 -2.6201e-11 4.3658e-11)
(1.80205e-06 -3.1276e-11 -5.17914e-11)
(1.80145e-06 1.87479e-10 6.95936e-11)
(1.79979e-06 4.04501e-10 -2.11037e-11)
(1.82234e-06 -8.95417e-09 1.29035e-08)
(1.91484e-06 -4.87936e-09 -7.74855e-09)
(1.85661e-06 -3.45238e-09 8.88887e-09)
(1.93238e-06 5.30862e-09 -9.05866e-09)
(1.84831e-06 -6.89495e-09 8.40478e-09)
(1.91222e-06 6.17446e-09 -7.47793e-09)
(1.9071e-06 -1.77716e-09 5.74614e-09)
(1.81913e-06 -4.53133e-09 -5.20237e-09)
(1.99826e-06 1.05517e-08 6.05153e-09)
(1.76765e-06 -1.238e-08 -6.18805e-09)
(1.98792e-06 1.07097e-08 5.29566e-09)
(1.82374e-06 -6.81148e-09 -3.54116e-09)
(1.92065e-06 3.43145e-09 1.89399e-09)
(1.87603e-06 -1.21447e-09 -7.36698e-10)
(1.89202e-06 3.68144e-10 2.36706e-10)
(1.88799e-06 -3.51846e-11 -3.09558e-11)
(1.88869e-06 2.21261e-11 1.10656e-11)
(1.88878e-06 1.19019e-11 1.02311e-11)
(1.88873e-06 1.02586e-11 2.96915e-12)
(1.88883e-06 6.86717e-12 6.08184e-12)
(1.88881e-06 5.94088e-12 1.50475e-12)
(1.88885e-06 2.98572e-12 3.70766e-12)
(1.88885e-06 4.34702e-12 -2.61605e-14)
(1.88885e-06 1.39613e-12 2.18669e-12)
(1.88887e-06 6.66734e-13 -1.5572e-12)
(1.88884e-06 -1.27011e-13 1.90612e-12)
(1.88887e-06 1.97737e-13 -3.11712e-12)
(1.88881e-06 3.13498e-12 2.62583e-12)
(1.88886e-06 3.94473e-13 -4.29294e-12)
(1.88878e-06 5.72445e-12 4.3851e-12)
(1.88885e-06 1.99225e-12 -6.07143e-12)
(1.88873e-06 7.99817e-12 6.02041e-12)
(1.88883e-06 -1.98511e-12 -8.80556e-12)
(1.88868e-06 5.02127e-12 7.48285e-12)
(1.88879e-06 -4.10705e-12 -1.16726e-11)
(1.88865e-06 2.94099e-12 8.51855e-12)
(1.88871e-06 -3.46821e-12 -1.28054e-11)
(1.88869e-06 -1.01836e-11 6.2505e-12)
(1.88852e-06 6.44402e-12 -8.22407e-12)
(1.8889e-06 -4.35034e-11 -2.62821e-12)
(1.88824e-06 1.87097e-11 1.39886e-12)
(1.88914e-06 -8.07395e-11 -1.22523e-11)
(1.8882e-06 6.28764e-12 1.01392e-11)
(1.88918e-06 -8.31483e-11 -1.94084e-11)
(1.88842e-06 -2.83295e-11 2.44223e-11)
(1.88923e-06 -8.22111e-11 -3.87935e-11)
(1.88863e-06 -2.37577e-11 4.38839e-11)
(1.88915e-06 -2.56308e-11 -5.06269e-11)
(1.88851e-06 2.15852e-10 7.09206e-11)
(1.88689e-06 4.17427e-10 -2.02123e-11)
(1.89102e-06 -9.51574e-09 1.29192e-08)
(1.98275e-06 -5.49834e-09 -7.75731e-09)
(1.92663e-06 -3.44456e-09 8.88393e-09)
(1.99896e-06 5.0955e-09 -9.08795e-09)
(1.91997e-06 -6.5855e-09 8.39851e-09)
(1.97756e-06 5.97857e-09 -7.47473e-09)
(1.97913e-06 -1.94023e-09 5.6967e-09)
(1.88513e-06 -4.02525e-09 -5.11249e-09)
(2.06919e-06 9.73244e-09 5.99594e-09)
(1.8348e-06 -1.15498e-08 -6.1681e-09)
(2.05786e-06 1.00529e-08 5.30694e-09)
(1.89174e-06 -6.43728e-09 -3.56115e-09)
(1.98989e-06 3.24726e-09 1.91341e-09)
(1.94462e-06 -1.15708e-09 -7.49487e-10)
(1.96089e-06 3.51262e-10 2.41484e-10)
(1.95677e-06 -3.42613e-11 -3.24544e-11)
(1.95749e-06 2.17453e-11 1.1252e-11)
(1.95758e-06 1.11564e-11 1.02467e-11)
(1.95753e-06 1.04642e-11 2.93205e-12)
(1.95763e-06 6.87432e-12 6.08754e-12)
(1.9576e-06 6.17911e-12 1.50802e-12)
(1.95765e-06 3.29856e-12 3.84496e-12)
(1.95765e-06 4.90866e-12 -3.38357e-14)
(1.95765e-06 2.08141e-12 2.25594e-12)
(1.95767e-06 1.41348e-12 -1.55546e-12)
(1.95764e-06 7.33699e-13 1.97316e-12)
(1.95767e-06 1.17218e-12 -3.17643e-12)
(1.95761e-06 4.14731e-12 2.79709e-12)
(1.95766e-06 1.26031e-12 -4.19434e-12)
(1.95757e-06 6.50059e-12 4.40098e-12)
(1.95764e-06 2.92633e-12 -5.98987e-12)
(1.95752e-06 8.89214e-12 6.03727e-12)
(1.95762e-06 -1.09186e-12 -8.7538e-12)
(1.95747e-06 5.82108e-12 7.4892e-12)
(1.95758e-06 -3.11333e-12 -1.16364e-11)
(1.95743e-06 3.98601e-12 8.50516e-12)
(1.9575e-06 -2.826e-12 -1.25983e-11)
(1.95747e-06 -8.87184e-12 6.23324e-12)
(1.9573e-06 5.96032e-12 -8.06021e-12)
(1.95768e-06 -4.05248e-11 -2.6781e-12)
(1.95702e-06 1.59315e-11 1.08341e-12)
(1.95793e-06 -7.66054e-11 -1.21524e-11)
(1.95696e-06 2.7892e-12 9.33223e-12)
(1.95797e-06 -7.93922e-11 -1.9265e-11)
(1.95717e-06 -2.93804e-11 2.4641e-11)
(1.95802e-06 -7.95898e-11 -3.87442e-11)
(1.95737e-06 -2.01117e-11 4.42259e-11)
(1.95794e-06 -2.06176e-11 -5.00888e-11)
(1.95726e-06 2.38049e-10 7.21341e-11)
(1.95569e-06 4.19697e-10 -1.95961e-11)
(1.94625e-06 -9.70891e-09 1.2927e-08)
(2.0358e-06 -6.04924e-09 -7.76684e-09)
(1.98244e-06 -3.31984e-09 8.84738e-09)
(2.05078e-06 4.77183e-09 -9.10906e-09)
(1.97688e-06 -6.15804e-09 8.41565e-09)
(2.02885e-06 5.65496e-09 -7.4727e-09)
(2.03575e-06 -1.97814e-09 5.68167e-09)
(1.9375e-06 -3.57811e-09 -5.04858e-09)
(2.12471e-06 8.91373e-09 5.95068e-09)
(1.88797e-06 -1.07026e-08 -6.14812e-09)
(2.11286e-06 9.3539e-09 5.31419e-09)
(1.94534e-06 -6.02398e-09 -3.58027e-09)
(2.04447e-06 3.04137e-09 1.93099e-09)
(1.99864e-06 -1.09151e-09 -7.61043e-10)
(2.01517e-06 3.31804e-10 2.459e-10)
(2.01096e-06 -3.30015e-11 -3.38588e-11)
(2.01171e-06 2.12858e-11 1.14233e-11)
(2.01179e-06 1.03449e-11 1.02754e-11)
(2.01174e-06 1.05886e-11 2.88283e-12)
(2.01184e-06 6.80041e-12 6.08748e-12)
(2.01182e-06 6.36629e-12 1.51539e-12)
(2.01187e-06 3.53436e-12 4.00003e-12)
(2.01187e-06 5.40699e-12 -6.16124e-14)
(2.01186e-06 2.73282e-12 2.22761e-12)
(2.01188e-06 2.1197e-12 -1.57296e-12)
(2.01185e-06 1.50183e-12 2.029e-12)
(2.01188e-06 2.08168e-12 -3.22088e-12)
(2.01182e-06 5.03423e-12 2.80597e-12)
(2.01187e-06 1.97758e-12 -4.05745e-12)
(2.01178e-06 7.12852e-12 4.39681e-12)
(2.01186e-06 3.63928e-12 -6.03879e-12)
(2.01173e-06 9.62963e-12 6.01613e-12)
(2.01183e-06 -3.10013e-13 -8.86342e-12)
(2.01168e-06 6.53999e-12 7.50008e-12)
(2.01179e-06 -2.248e-12 -1.17128e-11)
(2.01164e-06 4.9837e-12 8.46794e-12)
(2.01171e-06 -2.36539e-12 -1.25992e-11)
(2.01168e-06 -7.35188e-12 6.24157e-12)
(2.01151e-06 5.26099e-12 -7.92115e-12)
(2.01189e-06 -3.71368e-11 -2.75557e-12)
(2.01123e-06 1.32111e-11 1.17891e-12)
(2.01213e-06 -7.14269e-11 -1.20459e-11)
(2.01116e-06 -3.15252e-13 9.40824e-12)
(2.01218e-06 -7.4751e-11 -1.92138e-11)
(2.01135e-06 -2.93866e-11 2.48432e-11)
(2.01222e-06 -7.59749e-11 -3.8553e-11)
(2.01154e-06 -1.57975e-11 4.44145e-11)
(2.01214e-06 -1.62204e-11 -5.05758e-11)
(2.01144e-06 2.53458e-10 7.32931e-11)
(2.00992e-06 4.13666e-10 -1.91488e-11)
(1.9907e-06 -9.63953e-09 1.29351e-08)
(2.07703e-06 -6.44372e-09 -7.78302e-09)
(2.02679e-06 -3.05642e-09 8.80774e-09)
(2.09098e-06 4.37549e-09 -9.12493e-09)
(2.02186e-06 -5.65236e-09 8.43895e-09)
(2.06905e-06 5.25801e-09 -7.47308e-09)
(2.08003e-06 -1.93315e-09 5.68752e-09)
(1.97892e-06 -3.166e-09 -5.00286e-09)
(2.16803e-06 8.09857e-09 5.91365e-09)
(1.92992e-06 -9.84937e-09 -6.13028e-09)
(2.15601e-06 8.63031e-09 5.3197e-09)
(1.98741e-06 -5.58745e-09 -3.59795e-09)
(2.08737e-06 2.82235e-09 1.94702e-09)
(2.04104e-06 -1.01998e-09 -7.71401e-10)
(2.0578e-06 3.10728e-10 2.49964e-10)
(2.05352e-06 -3.14664e-11 -3.51626e-11)
(2.05428e-06 2.08127e-11 1.15921e-11)
(2.05437e-06 9.50093e-12 1.03082e-11)
(2.05431e-06 1.06648e-11 2.83624e-12)
(2.05442e-06 6.65152e-12 6.08287e-12)
(2.05439e-06 6.50663e-12 1.52428e-12)
(2.05444e-06 3.69453e-12 4.08759e-12)
(2.05444e-06 5.82009e-12 -9.85384e-14)
(2.05444e-06 3.29148e-12 2.27506e-12)
(2.05446e-06 2.74263e-12 -1.58531e-12)
(2.05442e-06 2.21319e-12 2.04182e-12)
(2.05445e-06 2.86737e-12 -3.21381e-12)
(2.05439e-06 5.7194e-12 2.73095e-12)
(2.05445e-06 2.49576e-12 -4.05404e-12)
(2.05435e-06 7.54381e-12 4.39338e-12)
(2.05443e-06 4.15293e-12 -6.09124e-12)
(2.0543e-06 1.01446e-11 5.98551e-12)
(2.05441e-06 2.737e-13 -8.85223e-12)
(2.05425e-06 7.09588e-12 7.52771e-12)
(2.05437e-06 -1.55878e-12 -1.16778e-11)
(2.05422e-06 5.81402e-12 8.4446e-12)
(2.05429e-06 -2.09907e-12 -1.27017e-11)
(2.05425e-06 -5.84978e-12 6.3856e-12)
(2.05409e-06 4.3643e-12 -7.74759e-12)
(2.05447e-06 -3.36586e-11 -2.81576e-12)
(2.0538e-06 1.04889e-11 1.95837e-12)
(2.05471e-06 -6.55751e-11 -1.19667e-11)
(2.05372e-06 -2.93131e-12 9.83369e-12)
(2.05475e-06 -6.94144e-11 -1.91877e-11)
(2.0539e-06 -2.87015e-11 2.50536e-11)
(2.05479e-06 -7.1554e-11 -3.84468e-11)
(2.05407e-06 -1.11338e-11 4.45709e-11)
(2.05471e-06 -1.23448e-11 -5.10574e-11)
(2.05398e-06 2.61969e-10 7.43724e-11)
(2.05252e-06 4.0111e-10 -1.87962e-11)
(2.02647e-06 -9.37035e-09 1.29455e-08)
(2.10891e-06 -6.64359e-09 -7.78596e-09)
(2.06185e-06 -2.67357e-09 8.79672e-09)
(2.12204e-06 3.94396e-09 -9.13822e-09)
(2.05721e-06 -5.11896e-09 8.46325e-09)
(2.10047e-06 4.82119e-09 -7.47531e-09)
(2.11446e-06 -1.83747e-09 5.70194e-09)
(2.01156e-06 -2.77476e-09 -4.97012e-09)
(2.20169e-06 7.29113e-09 5.88266e-09)
(1.96283e-06 -8.99534e-09 -6.11445e-09)
(2.18972e-06 7.89322e-09 5.32446e-09)
(2.02028e-06 -5.13738e-09 -3.61418e-09)
(2.12095e-06 2.59537e-09 1.96158e-09)
(2.07417e-06 -9.44026e-10 -7.80806e-10)
(2.09115e-06 2.88626e-10 2.53688e-10)
(2.08678e-06 -2.9688e-11 -3.63584e-11)
(2.08757e-06 2.03391e-11 1.17801e-11)
(2.08765e-06 8.64288e-12 1.03558e-11)
(2.0876e-06 1.07079e-11 2.80717e-12)
(2.0877e-06 6.4306e-12 6.06059e-12)
(2.08768e-06 6.59933e-12 1.54364e-12)
(2.08772e-06 3.78254e-12 4.13059e-12)
(2.08773e-06 6.13431e-12 -1.39812e-13)
(2.08772e-06 3.69919e-12 2.31435e-12)
(2.08774e-06 3.25401e-12 -1.6025e-12)
(2.08771e-06 2.78556e-12 2.04267e-12)
(2.08774e-06 3.48012e-12 -3.24869e-12)
(2.08768e-06 6.20233e-12 2.66136e-12)
(2.08773e-06 2.87237e-12 -4.07267e-12)
(2.08764e-06 7.72332e-12 4.40597e-12)
(2.08772e-06 4.41725e-12 -6.14112e-12)
(2.08759e-06 1.03806e-11 5.95311e-12)
(2.0877e-06 5.65377e-13 -8.7196e-12)
(2.08754e-06 7.41794e-12 7.56901e-12)
(2.08766e-06 -1.14307e-12 -1.1686e-11)
(2.08751e-06 6.41149e-12 8.41936e-12)
(2.08758e-06 -2.05504e-12 -1.27071e-11)
(2.08755e-06 -4.53064e-12 6.36903e-12)
(2.08738e-06 3.2975e-12 -7.52588e-12)
(2.08776e-06 -3.01394e-11 -2.8589e-12)
(2.08709e-06 7.74108e-12 2.60104e-12)
(2.088e-06 -5.94981e-11 -1.19319e-11)
(2.087e-06 -4.90273e-12 9.55434e-12)
(2.08803e-06 -6.35025e-11 -1.92004e-11)
(2.08716e-06 -2.73144e-11 2.52531e-11)
(2.08807e-06 -6.64229e-11 -3.85634e-11)
(2.08732e-06 -6.40865e-12 4.47562e-11)
(2.08799e-06 -9.02801e-12 -5.13851e-11)
(2.08724e-06 2.63811e-10 7.53815e-11)
(2.08583e-06 3.83117e-10 -1.84041e-11)
(2.05522e-06 -8.94101e-09 1.29564e-08)
(2.13339e-06 -6.65668e-09 -7.77443e-09)
(2.08942e-06 -2.24258e-09 8.81699e-09)
(2.14592e-06 3.50231e-09 -9.15022e-09)
(2.08481e-06 -4.57962e-09 8.4875e-09)
(2.12493e-06 4.36243e-09 -7.47865e-09)
(2.14108e-06 -1.71315e-09 5.7191e-09)
(2.03715e-06 -2.40272e-09 -4.95668e-09)
(2.2277e-06 6.4962e-09 5.85615e-09)
(1.98851e-06 -8.14245e-09 -6.09967e-09)
(2.21595e-06 7.1494e-09 5.32907e-09)
(2.04581e-06 -4.67948e-09 -3.629e-09)
(2.14709e-06 2.36362e-09 1.97475e-09)
(2.09991e-06 -8.65202e-10 -7.89309e-10)
(2.11709e-06 2.65862e-10 2.57086e-10)
(2.11265e-06 -2.76805e-11 -3.74324e-11)
(2.11346e-06 1.98697e-11 1.19825e-11)
(2.11354e-06 7.78845e-12 1.04059e-11)
(2.11348e-06 1.07133e-11 2.79957e-12)
(2.11359e-06 6.13723e-12 6.0349e-12)
(2.11356e-06 6.64514e-12 1.5647e-12)
(2.11361e-06 3.77988e-12 4.14999e-12)
(2.11361e-06 6.34635e-12 -1.80024e-13)
(2.11361e-06 3.953e-12 2.30427e-12)
(2.11363e-06 3.64147e-12 -1.59679e-12)
(2.1136e-06 3.17635e-12 2.03159e-12)
(2.11363e-06 3.9103e-12 -3.3021e-12)
(2.11357e-06 6.43455e-12 2.62937e-12)
(2.11362e-06 3.04862e-12 -4.09587e-12)
(2.11353e-06 7.65368e-12 4.4303e-12)
(2.11362e-06 4.43038e-12 -6.16884e-12)
(2.11348e-06 1.03228e-11 5.93257e-12)
(2.1136e-06 5.94968e-13 -8.67382e-12)
(2.11344e-06 7.47282e-12 7.60353e-12)
(2.11356e-06 -9.9579e-13 -1.17191e-11)
(2.1134e-06 6.75445e-12 8.40592e-12)
(2.11348e-06 -2.23938e-12 -1.26593e-11)
(2.11345e-06 -3.40168e-12 6.2324e-12)
(2.11328e-06 2.05743e-12 -7.39263e-12)
(2.11366e-06 -2.65853e-11 -2.89703e-12)
(2.11298e-06 5.06338e-12 2.81665e-12)
(2.11389e-06 -5.32919e-11 -1.19125e-11)
(2.11289e-06 -6.21182e-12 8.97423e-12)
(2.11393e-06 -5.70616e-11 -1.92124e-11)
(2.11304e-06 -2.53082e-11 2.54037e-11)
(2.11396e-06 -6.0678e-11 -3.87296e-11)
(2.11319e-06 -1.9161e-12 4.49643e-11)
(2.11388e-06 -6.35742e-12 -5.15817e-11)
(2.11311e-06 2.59437e-10 7.62793e-11)
(2.11174e-06 3.60281e-10 -1.7965e-11)
(2.07826e-06 -8.37156e-09 1.296e-08)
(2.15207e-06 -6.50697e-09 -7.75509e-09)
(2.11097e-06 -1.82378e-09 8.83935e-09)
(2.16419e-06 3.06348e-09 -9.16215e-09)
(2.1062e-06 -4.04043e-09 8.51123e-09)
(2.14388e-06 3.8947e-09 -7.48399e-09)
(2.16152e-06 -1.57512e-09 5.73663e-09)
(2.05709e-06 -2.0518e-09 -4.9517e-09)
(2.24768e-06 5.71756e-09 5.83335e-09)
(2.00843e-06 -7.28973e-09 -6.08524e-09)
(2.23624e-06 6.40274e-09 5.33341e-09)
(2.06551e-06 -4.21711e-09 -3.64247e-09)
(2.16734e-06 2.12914e-09 1.98666e-09)
(2.1198e-06 -7.84175e-10 -7.96983e-10)
(2.13715e-06 2.42673e-10 2.6015e-10)
(2.13265e-06 -2.54531e-11 -3.84033e-11)
(2.13347e-06 1.94251e-11 1.21781e-11)
(2.13355e-06 6.95091e-12 1.04559e-11)
(2.1335e-06 1.06829e-11 2.80239e-12)
(2.1336e-06 5.7699e-12 6.01525e-12)
(2.13358e-06 6.65459e-12 1.58439e-12)
(2.13363e-06 3.68369e-12 4.16521e-12)
(2.13363e-06 6.45599e-12 -2.21504e-13)
(2.13363e-06 4.0652e-12 2.27471e-12)
(2.13365e-06 3.90199e-12 -1.58337e-12)
(2.13362e-06 3.38111e-12 2.01795e-12)
(2.13365e-06 4.15871e-12 -3.35066e-12)
(2.13358e-06 6.41189e-12 2.59972e-12)
(2.13364e-06 2.98408e-12 -4.09255e-12)
(2.13355e-06 7.32701e-12 4.4624e-12)
(2.13364e-06 4.20691e-12 -6.18098e-12)
(2.13351e-06 9.97486e-12 5.92189e-12)
(2.13362e-06 3.98103e-13 -8.62603e-12)
(2.13346e-06 7.25657e-12 7.63384e-12)
(2.13359e-06 -1.0794e-12 -1.17479e-11)
(2.13343e-06 6.82945e-12 8.40739e-12)
(2.13351e-06 -2.67428e-12 -1.27238e-11)
(2.13348e-06 -2.46508e-12 6.19676e-12)
(2.13331e-06 6.58883e-13 -7.57651e-12)
(2.13369e-06 -2.30618e-11 -2.94153e-12)
(2.13301e-06 2.55266e-12 2.80506e-12)
(2.13392e-06 -4.6839e-11 -1.18832e-11)
(2.13291e-06 -7.1208e-12 8.99481e-12)
(2.13395e-06 -5.02033e-11 -1.91269e-11)
(2.13306e-06 -2.27763e-11 2.5525e-11)
(2.13398e-06 -5.44415e-11 -3.89173e-11)
(2.13319e-06 2.27015e-12 4.46586e-11)
(2.1339e-06 -4.35495e-12 -5.16593e-11)
(2.13312e-06 2.49443e-10 7.71001e-11)
(2.13179e-06 3.32929e-10 -1.74486e-11)
(2.09663e-06 -7.66628e-09 1.29509e-08)
(2.16622e-06 -6.22788e-09 -7.73896e-09)
(2.12769e-06 -1.4468e-09 8.84679e-09)
(2.17808e-06 2.63333e-09 -9.17422e-09)
(2.12266e-06 -3.51151e-09 8.53798e-09)
(2.15847e-06 3.423e-09 -7.49148e-09)
(2.17711e-06 -1.43338e-09 5.75339e-09)
(2.07253e-06 -1.71711e-09 -4.95013e-09)
(2.26294e-06 4.95686e-09 5.8137e-09)
(2.02377e-06 -6.43466e-09 -6.07077e-09)
(2.25183e-06 5.65555e-09 5.33652e-09)
(2.08061e-06 -3.75214e-09 -3.65478e-09)
(2.18292e-06 1.89313e-09 1.99751e-09)
(2.13505e-06 -7.01326e-10 -8.03903e-10)
(2.15257e-06 2.19224e-10 2.62887e-10)
(2.14801e-06 -2.30198e-11 -3.9278e-11)
(2.14884e-06 1.90111e-11 1.23459e-11)
(2.14892e-06 6.12214e-12 1.05029e-11)
(2.14887e-06 1.06281e-11 2.81364e-12)
(2.14897e-06 5.33332e-12 5.99298e-12)
(2.14895e-06 6.6352e-12 1.60192e-12)
(2.149e-06 3.50065e-12 4.1691e-12)
(2.149e-06 6.47012e-12 -2.54858e-13)
(2.149e-06 4.03634e-12 2.22744e-12)
(2.14902e-06 4.03806e-12 -1.57507e-12)
(2.14899e-06 3.41569e-12 2.007e-12)
(2.14902e-06 4.23071e-12 -3.37627e-12)
(2.14896e-06 6.14817e-12 2.57144e-12)
(2.14902e-06 2.71848e-12 -4.07113e-12)
(2.14893e-06 6.75204e-12 4.48987e-12)
(2.14902e-06 3.78375e-12 -6.1748e-12)
(2.14888e-06 9.35213e-12 5.92591e-12)
(2.149e-06 -3.55748e-14 -8.46728e-12)
(2.14884e-06 6.77823e-12 7.6652e-12)
(2.14897e-06 -1.38937e-12 -1.17305e-11)
(2.14881e-06 6.62376e-12 8.41844e-12)
(2.14889e-06 -3.37493e-12 -1.28315e-11)
(2.14886e-06 -1.76272e-12 6.1867e-12)
(2.14869e-06 -8.32448e-13 -7.80696e-12)
(2.14907e-06 -1.95424e-11 -2.95313e-12)
(2.14839e-06 2.5436e-13 2.46992e-12)
(2.14931e-06 -4.01664e-11 -1.18606e-11)
(2.1483e-06 -7.83874e-12 9.13737e-12)
(2.14933e-06 -4.30917e-11 -1.90296e-11)
(2.14843e-06 -1.98378e-11 2.56484e-11)
(2.14935e-06 -4.77413e-11 -3.93685e-11)
(2.14855e-06 6.3545e-12 4.42223e-11)
(2.14928e-06 -2.93143e-12 -5.16225e-11)
(2.14849e-06 2.34485e-10 7.78053e-11)
(2.14718e-06 3.01348e-10 -1.69445e-11)
(2.11119e-06 -6.8231e-09 1.2931e-08)
(2.17685e-06 -5.83475e-09 -7.73271e-09)
(2.14058e-06 -1.12978e-09 8.84435e-09)