/*--------------------------------*- C++ -*----------------------------------*\
| =========                 |                                                 |
| \\      /  F ield         | OpenFOAM: The Open Source CFD Toolbox           |
|  \\    /   O peration     | Version:  2412                                  |
|   \\  /    A nd           | Website:  www.openfoam.com                      |
|    \\/     M anipulation  |                                                 |
\*---------------------------------------------------------------------------*/
FoamFile
{
    version     2.0;
    format      ascii;
    arch        "LSB;label=32;scalar=64";
    class       volScalarField;
    location    "250";
    object      p;
}
// * * * * * * * * * * * * * * * * * * * * * * * * * * * * * * * * * * * * * //

dimensions      [0 2 -2 0 0 0 0];

internalField   nonuniform List<scalar> 
283461
(
0.000942441
0.000942439
0.000942463
0.000942498
0.000942537
0.000942573
0.000107548
0.000134117
0.000141004
0.000141214
0.000138732
0.00013486
0.000130232
0.000125217
0.000119966
0.000114528
0.000108989
0.000103406
9.78209e-05
9.22762e-05
8.67122e-05
8.10594e-05
7.53893e-05
6.98572e-05
6.46095e-05
5.96584e-05
5.50127e-05
5.07176e-05
4.67526e-05
4.30938e-05
3.97077e-05
3.65672e-05
3.3654e-05
3.09509e-05
2.84474e-05
2.61402e-05
2.40175e-05
2.20656e-05
2.02722e-05
1.86274e-05
1.71232e-05
1.57535e-05
1.45129e-05
1.3397e-05
1.24019e-05
1.15239e-05
1.076e-05
1.0107e-05
9.55964e-06
9.10728e-06
8.71712e-06
8.32281e-06
7.73626e-06
6.63629e-06
4.1549e-08
0.000942421
0.000942428
0.000942436
0.00094246
0.000942499
0.000942551
0.000942618
0.000942725
0.000942787
0.000942831
0.000942857
0.000942831
0.000942837
0.000943014
0.000943267
0.00094385
0.000249382
0.000242352
0.000225942
0.000164162
0.000156686
0.0001515
0.000146528
0.00014157
0.000136462
0.000131206
0.000125847
0.000120407
0.000114851
0.000109252
0.000103607
9.7923e-05
9.22167e-05
8.65161e-05
8.08505e-05
7.52622e-05
6.98068e-05
6.45627e-05
5.95972e-05
5.49341e-05
5.06284e-05
4.66597e-05
4.30007e-05
3.96147e-05
3.64734e-05
3.35581e-05
3.08506e-05
2.83419e-05
2.60325e-05
2.39098e-05
2.19587e-05
2.01657e-05
1.85206e-05
1.70151e-05
1.56429e-05
1.43981e-05
1.32758e-05
1.2271e-05
1.13783e-05
1.05916e-05
9.90261e-06
9.29737e-06
8.74967e-06
8.20195e-06
7.54484e-06
6.56578e-06
4.85467e-06
-1.13115e-08
0.000942419
0.00094242
0.000942426
0.000942446
0.000942484
0.000942532
0.00094259
0.000942666
0.000942725
0.000942763
0.000942787
0.000942777
0.000942798
0.000942937
0.000943157
0.000943613
0.000942757
0.000941966
0.000942524
0.000944179
0.000935264
0.000936623
0.000937197
0.000939768
0.000284147
0.000257915
0.000237744
0.000217168
0.000182197
0.000169367
0.000159682
0.000151809
0.000144928
0.000138547
0.0001326
0.000126789
0.000120942
0.000115155
0.000109434
0.000103704
9.79617e-05
9.22225e-05
8.65038e-05
8.08279e-05
7.52215e-05
6.97478e-05
6.44877e-05
5.94909e-05
5.47894e-05
5.04634e-05
4.64863e-05
4.28257e-05
3.94391e-05
3.62964e-05
3.33781e-05
3.0662e-05
2.81426e-05
2.58298e-05
2.37082e-05
2.17592e-05
1.99678e-05
1.83225e-05
1.68151e-05
1.54392e-05
1.41883e-05
1.30567e-05
1.2038e-05
1.11249e-05
1.03079e-05
9.57383e-06
8.90054e-06
8.2515e-06
7.55794e-06
6.7083e-06
5.52393e-06
3.71329e-06
8.59014e-08
0.000942415
0.000942408
0.000942406
0.00094242
0.000942453
0.000942496
0.000942545
0.000942601
0.000942647
0.000942676
0.000942693
0.000942688
0.000942695
0.000942752
0.000942796
0.000942882
0.000942333
0.000941804
0.000941812
0.000942228
0.000940239
0.000937747
0.000937336
0.000936931
0.000937697
0.00093532
0.000932373
0.000930162
0.000926753
0.000923649
0.000922752
0.000919614
0.000923547
0.000842098
0.000856559
0.000346748
0.000319792
0.000288314
0.000249071
0.000224572
0.000197352
0.000180806
0.000167925
0.000157553
0.000148818
0.000141148
0.000134222
0.000127717
0.000121486
0.000115524
0.00010969
0.000103862
9.80227e-05
9.22026e-05
8.64403e-05
8.0762e-05
7.51579e-05
6.9676e-05
6.44048e-05
5.93528e-05
5.45831e-05
5.02207e-05
4.62261e-05
4.25593e-05
3.917e-05
3.60257e-05
3.31052e-05
3.0376e-05
2.78396e-05
2.55229e-05
2.34043e-05
2.1459e-05
1.96701e-05
1.8025e-05
1.65151e-05
1.51347e-05
1.38761e-05
1.2733e-05
1.16981e-05
1.07626e-05
9.914e-06
9.1365e-06
8.40396e-06
7.67862e-06
6.89357e-06
5.95772e-06
4.74267e-06
3.06429e-06
3.94464e-07
0.000942391
0.00094237
0.000942376
0.000942411
0.000942452
0.000942496
0.000942542
0.000942579
0.000942602
0.000942612
0.000942604
0.000942589
0.00094258
0.00094254
0.000942477
0.000942092
0.000941671
0.000941445
0.000941267
0.000939923
0.000938285
0.000937439
0.000936626
0.000936281
0.000934418
0.00093181
0.000929318
0.000925919
0.000922038
0.000918655
0.000913199
0.000909436
0.000893687
0.000875156
0.00085486
0.000851614
0.000842715
0.000867154
0.000418487
0.000390675
0.000359544
0.000322065
0.000273365
0.0002428
0.000214323
0.00019299
0.000176557
0.000163553
0.0001529
0.000143822
0.000135792
0.000128595
0.000121978
0.000115776
0.000109859
0.000103956
9.80229e-05
9.21212e-05
8.63249e-05
8.06706e-05
7.50917e-05
6.96232e-05
6.4353e-05
5.92146e-05
5.4342e-05
4.99149e-05
4.58833e-05
4.21985e-05
3.88008e-05
3.56554e-05
3.27384e-05
2.99926e-05
2.74333e-05
2.51146e-05
2.30023e-05
2.10623e-05
1.92769e-05
1.76326e-05
1.61201e-05
1.47354e-05
1.34688e-05
1.23145e-05
1.12645e-05
1.03099e-05
9.43544e-06
8.62555e-06
7.85203e-06
7.08118e-06
6.25681e-06
5.30339e-06
4.14078e-06
2.679e-06
7.1711e-07
0.000942296
0.000942294
0.000942346
0.000942397
0.000942447
0.000942491
0.000942526
0.000942546
0.00094255
0.000942533
0.000942495
0.00094244
0.000942344
0.000942195
0.000941874
0.000941482
0.000941095
0.000940621
0.000939644
0.000938457
0.00093745
0.000936373
0.000935329
0.000933583
0.000931286
0.000928715
0.000925374
0.000921368
0.000917117
0.000910929
0.000904142
0.000890996
0.000873783
0.000854638
0.000838636
0.000814269
0.000792496
0.000709669
0.00056869
0.000483805
0.00041717
0.000359298
0.000301854
0.000264876
0.000232209
0.000205696
0.000185352
0.00016963
0.000157016
0.000146436
0.000137201
0.000129225
0.000122181
0.000115748
0.000109862
0.000103943
9.79203e-05
9.19308e-05
8.61155e-05
8.05335e-05
7.50148e-05
6.95652e-05
6.42805e-05
5.90473e-05
5.40671e-05
4.95329e-05
4.544e-05
4.17229e-05
3.83101e-05
3.51671e-05
3.22708e-05
2.95101e-05
2.69254e-05
2.46089e-05
2.25068e-05
2.05723e-05
1.87909e-05
1.71481e-05
1.56332e-05
1.42449e-05
1.29712e-05
1.18073e-05
1.07464e-05
9.78066e-06
8.88993e-06
8.06318e-06
7.279e-06
6.49329e-06
5.67235e-06
4.75532e-06
3.69311e-06
2.46236e-06
9.96103e-07
0.000942135
0.000942242
0.000942328
0.000942395
0.00094245
0.000942491
0.000942513
0.000942514
0.000942489
0.000942435
0.00094235
0.000942217
0.000942023
0.000941715
0.000941323
0.000940868
0.000940295
0.000939447
0.000938423
0.000937359
0.000936166
0.000934836
0.000933058
0.000930808
0.000928132
0.000924754
0.000920584
0.000915661
0.000909109
0.000901028
0.000889121
0.000873995
0.000855075
0.00083397
0.000806701
0.000772229
0.000704184
0.000604995
0.000523464
0.000452765
0.000389171
0.000328753
0.000286009
0.00024905
0.000218284
0.000193935
0.00017568
0.000161224
0.000149012
0.000138267
0.000129346
0.000121831
0.00011512
0.000109491
0.000103702
9.76238e-05
9.15488e-05
8.57773e-05
8.03822e-05
7.50251e-05
6.95978e-05
6.41932e-05
5.88616e-05
5.38263e-05
4.91256e-05
4.49292e-05
4.11461e-05
3.76902e-05
3.45359e-05
3.16772e-05
2.89117e-05
2.63121e-05
2.40082e-05
2.19219e-05
1.99916e-05
1.82142e-05
1.65739e-05
1.50563e-05
1.36663e-05
1.23868e-05
1.12154e-05
1.01491e-05
9.18283e-06
8.29738e-06
7.47736e-06
6.69874e-06
5.93166e-06
5.14741e-06
4.3046e-06
3.36607e-06
2.35841e-06
1.27037e-06
0.000941993
0.000942097
0.000942236
0.000942338
0.000942416
0.000942473
0.000942505
0.00094251
0.000942482
0.000942418
0.000942313
0.000942156
0.000941935
0.000941623
0.000941223
0.000940736
0.000940127
0.000939329
0.000938368
0.000937287
0.000936039
0.000934589
0.000932777
0.00093053
0.000927805
0.000924419
0.000920215
0.000915068
0.000908437
0.000900024
0.000888625
0.000873986
0.000854889
0.000831544
0.000801799
0.000763411
0.000706955
0.000629354
0.000555539
0.000485212
0.00042071
0.000360358
0.000312191
0.000268815
0.000232022
0.000202507
0.00018198
0.000165727
0.000151655
0.000138826
0.000128718
0.000120841
0.000113849
0.000108802
0.000103273
9.71398e-05
9.09415e-05
8.52485e-05
8.01728e-05
7.50891e-05
6.9677e-05
6.41137e-05
5.86575e-05
5.35222e-05
4.86154e-05
4.42818e-05
4.0414e-05
3.68868e-05
3.37043e-05
3.09092e-05
2.81701e-05
2.55964e-05
2.33236e-05
2.12552e-05
1.93208e-05
1.75432e-05
1.59054e-05
1.43864e-05
1.29984e-05
1.17144e-05
1.05303e-05
9.47637e-06
8.53979e-06
7.66167e-06
6.86005e-06
6.11487e-06
5.39878e-06
4.67899e-06
3.92708e-06
3.11864e-06
2.28116e-06
1.53938e-06
0.000941814
0.000942087
0.000942258
0.000942379
0.000942465
0.000942519
0.000942535
0.000942511
0.000942443
0.000942327
0.000942156
0.000941919
0.0009416
0.000941193
0.00094069
0.000940069
0.000939294
0.000938366
0.000937285
0.000936019
0.000934523
0.000932701
0.000930473
0.000927762
0.000924422
0.000920287
0.000915172
0.000908675
0.000900382
0.000889456
0.000875244
0.000856086
0.000831958
0.000801342
0.000763602
0.000713588
0.000648432
0.000581328
0.000510946
0.000445866
0.000383186
0.00033214
0.000283997
0.000243506
0.000212296
0.00018909
0.000170939
0.000154487
0.000138429
0.000126761
0.000119024
0.000111983
0.000107781
0.000102445
9.6175e-05
8.98172e-05
8.44154e-05
7.99124e-05
7.53193e-05
6.99626e-05
6.43168e-05
5.88227e-05
5.32998e-05
4.79043e-05
4.34053e-05
3.94929e-05
3.58827e-05
3.26624e-05
2.99321e-05
2.7273e-05
2.48101e-05
2.25861e-05
2.05204e-05
1.85602e-05
1.67746e-05
1.51411e-05
1.36234e-05
1.22422e-05
1.09561e-05
9.79968e-06
8.76482e-06
7.83078e-06
6.99021e-06
6.23776e-06
5.54518e-06
4.89249e-06
4.25457e-06
3.60572e-06
2.92426e-06
2.26017e-06
1.76007e-06
0.000941596
0.000941867
0.000942122
0.000942316
0.000942454
0.000942544
0.000942583
0.00094257
0.000942506
0.000942388
0.00094221
0.000941964
0.00094164
0.00094123
0.000940724
0.000940103
0.000939346
0.00093844
0.000937373
0.000936114
0.000934619
0.000932819
0.000930637
0.00092799
0.000924753
0.000920765
0.00091583
0.000909614
0.000901683
0.000891351
0.000877765
0.000858903
0.000835926
0.000805597
0.000768905
0.000722157
0.000666329
0.000606229
0.00053228
0.000465499
0.000400267
0.000349195
0.000299081
0.00025415
0.000221488
0.000197133
0.000178634
0.00015845
0.000137498
0.000124164
0.000115904
0.000108115
0.000105044
0.000101023
9.52699e-05
8.92513e-05
8.47187e-05
8.04436e-05
7.62127e-05
7.05939e-05
6.4533e-05
5.88941e-05
5.27574e-05
4.67313e-05
4.23928e-05
3.86037e-05
3.47593e-05
3.14417e-05
2.88001e-05
2.62245e-05
2.3909e-05
2.17734e-05
1.96963e-05
1.76928e-05
1.58948e-05
1.42706e-05
1.27626e-05
1.14036e-05
1.01174e-05
8.98255e-06
7.98742e-06
7.09712e-06
6.31173e-06
5.61722e-06
4.99459e-06
4.42078e-06
3.87446e-06
3.3313e-06
2.77024e-06
2.28938e-06
1.91858e-06
0.000941378
0.00094185
0.000942197
0.00094242
0.000942569
0.000942645
0.000942655
0.000942602
0.000942488
0.00094231
0.000942063
0.000941739
0.000941331
0.000940828
0.000940216
0.000939477
0.000938597
0.000937556
0.000936324
0.000934862
0.000933111
0.000931004
0.000928461
0.00092537
0.000921582
0.000916909
0.000911063
0.000903639
0.000894067
0.000881522
0.000864393
0.000843814
0.000813444
0.000775652
0.000733143
0.000687446
0.000636225
0.000553654
0.000482179
0.000405391
0.000343707
0.000295581
0.000255019
0.000223859
0.000201261
0.000186833
0.000165558
0.000138603
0.000114856
0.000109737
0.000105533
0.000103772
0.000100785
9.43997e-05
8.7928e-05
8.44386e-05
8.08459e-05
7.75729e-05
7.14767e-05
6.45358e-05
5.8862e-05
5.18012e-05
4.5296e-05
4.1858e-05
3.78338e-05
3.34611e-05
3.00548e-05
2.74768e-05
2.49553e-05
2.28335e-05
2.0812e-05
1.87359e-05
1.66786e-05
1.4852e-05
1.32543e-05
1.17772e-05
1.04513e-05
9.19661e-06
8.11681e-06
7.15904e-06
6.32987e-06
5.6235e-06
5.00943e-06
4.47236e-06
3.98903e-06
3.53946e-06
3.10006e-06
2.64878e-06
2.30548e-06
2.06651e-06
0.000941059
0.000941399
0.000941981
0.000942344
0.000942582
0.000942713
0.000942756
0.000942724
0.00094262
0.000942448
0.000942205
0.000941887
0.000941486
0.000940993
0.000940398
0.000939683
0.000938834
0.00093783
0.000936642
0.000935234
0.000933557
0.000931551
0.00092914
0.000926226
0.000922669
0.000918295
0.000912842
0.000905945
0.000897119
0.000885459
0.000870239
0.000852272
0.000825793
0.000789465
0.000753619
0.000724753
0.000698067
0.000616863
0.00052663
0.000410407
0.000342164
0.000293071
0.000253303
0.000223978
0.000205398
0.000201051
0.000102712
0.000103473
0.000103237
0.000102401
9.92649e-05
9.35815e-05
8.79959e-05
8.44352e-05
8.05553e-05
7.68661e-05
7.05683e-05
6.39128e-05
5.9341e-05
5.25022e-05
4.56646e-05
4.16785e-05
3.6807e-05
3.19674e-05
2.85758e-05
2.5921e-05
2.35317e-05
2.16918e-05
1.9732e-05
1.75521e-05
1.53792e-05
1.35672e-05
1.20749e-05
1.06815e-05
9.41132e-06
8.19061e-06
7.1771e-06
6.3041e-06
5.56699e-06
4.95479e-06
4.43394e-06
3.99206e-06
3.60505e-06
3.25329e-06
2.91442e-06
2.56795e-06
2.33827e-06
2.25932e-06
0.000940235
0.000941355
0.000942129
0.000942556
0.000942773
0.000942867
0.000942863
0.000942777
0.000942617
0.000942384
0.000942076
0.000941687
0.000941212
0.000940638
0.000939954
0.000939143
0.000938186
0.000937055
0.000935719
0.000934135
0.00093225
0.000929997
0.000927288
0.000923992
0.000919946
0.000914914
0.000908557
0.000900511
0.000889769
0.000876887
0.000862175
0.000841679
0.000805285
0.000767145
0.000740763
0.000721972
0.000678104
0.000622176
0.000101189
0.000101831
0.000102444
9.85453e-05
9.2107e-05
8.63436e-05
8.39689e-05
8.0929e-05
7.82337e-05
7.03349e-05
6.28357e-05
6.03022e-05
5.19749e-05
4.33937e-05
4.06439e-05
3.66556e-05
3.18444e-05
2.72584e-05
2.43908e-05
2.2075e-05
2.0247e-05
1.82075e-05
1.58561e-05
1.37289e-05
1.20364e-05
1.07041e-05
9.4639e-06
8.31342e-06
7.17425e-06
6.252e-06
5.47253e-06
4.8367e-06
4.32914e-06
3.91073e-06
3.56884e-06
3.27822e-06
3.02029e-06
2.77498e-06
2.52617e-06
2.3894e-06
2.47197e-06
0.000940641
0.000941879
0.000942541
0.000942843
0.000942987
0.000943016
0.000942953
0.000942809
0.00094259
0.000942296
0.000941925
0.000941472
0.000940927
0.00094028
0.000939514
0.000938613
0.000937551
0.000936301
0.000934823
0.000933075
0.000930996
0.000928511
0.000925489
0.000921774
0.000917141
0.000911246
0.000903934
0.000894083
0.000882565
0.000869198
0.000850606
0.000816698
0.00077865
0.000756873
0.000736371
0.000713893
0.000100731
0.000100626
9.75402e-05
9.27144e-05
8.8138e-05
8.44198e-05
8.0359e-05
7.61675e-05
7.01029e-05
6.38337e-05
5.88741e-05
5.16846e-05
4.40686e-05
4.06208e-05
3.6345e-05
3.0817e-05
2.55177e-05
2.16359e-05
1.98388e-05
1.85047e-05
1.65957e-05
1.41976e-05
1.21128e-05
1.04096e-05
9.28559e-06
8.23793e-06
7.19324e-06
6.14691e-06
5.32723e-06
4.66299e-06
4.15534e-06
3.76812e-06
3.46051e-06
3.21846e-06
3.01825e-06
2.84395e-06
2.67935e-06
2.51669e-06
2.46032e-06
2.68708e-06
0.000940842
0.000941935
0.0009426
0.000942936
0.000943118
0.000943178
0.000943139
0.000943014
0.000942813
0.000942538
0.000942189
0.000941763
0.000941252
0.000940648
0.000939935
0.000939098
0.000938115
0.00093696
0.000935602
0.000934003
0.000932114
0.000929878
0.000927158
0.000923801
0.000919585
0.000914073
0.000907532
0.000898597
0.000888002
0.000877592
0.000858069
0.000820277
0.000780077
0.00075465
0.000748852
3.97226e-05
3.87004e-05
3.5534e-05
3.11999e-05
2.64232e-05
1.85216e-05
1.73991e-05
1.60799e-05
1.41444e-05
1.21068e-05
1.02173e-05
8.82691e-06
7.90492e-06
7.0271e-06
6.12853e-06
5.23525e-06
4.50435e-06
3.95222e-06
3.57247e-06
3.30485e-06
3.10446e-06
2.95277e-06
2.82849e-06
2.72182e-06
2.62041e-06
2.52488e-06
2.529e-06
2.86223e-06
0.000940736
0.000941788
0.000942576
0.000942994
0.000943233
0.000943335
0.000943325
0.000943224
0.000943044
0.000942792
0.000942468
0.000942073
0.000941602
0.000941046
0.000940393
0.000939628
0.000938732
0.000937682
0.000936451
0.000935011
0.000933323
0.000931355
0.000928956
0.000925973
0.000922167
0.000916865
0.000911527
0.00090497
0.000897884
0.000892688
0.000886119
1.27406e-05
1.37919e-05
1.33232e-05
1.20753e-05
1.03943e-05
8.40782e-06
7.39892e-06
6.64727e-06
5.92971e-06
5.18906e-06
4.43582e-06
3.77599e-06
3.35725e-06
3.1096e-06
2.95573e-06
2.84978e-06
2.77053e-06
2.70416e-06
2.64726e-06
2.59074e-06
2.53926e-06
2.59294e-06
2.99153e-06
0.000940709
0.000941706
0.000942544
0.00094303
0.000943331
0.000943479
0.000943503
0.000943429
0.000943273
0.000943045
0.00094275
0.00094239
0.000941962
0.000941459
0.000940872
0.000940187
0.000939386
0.000938448
0.000937351
0.000936074
0.000934591
0.000932905
0.000930828
0.000928161
0.000924562
0.000918605
0.000914396
0.000908116
0.000904922
0.000901858
1.14571e-05
1.19014e-05
1.15374e-05
1.04576e-05
8.76676e-06
7.13246e-06
6.32552e-06
5.5961e-06
4.96316e-06
4.33411e-06
3.70447e-06
3.19815e-06
2.9255e-06
2.79446e-06
2.73108e-06
2.69601e-06
2.66832e-06
2.64262e-06
2.61477e-06
2.57913e-06
2.54395e-06
2.6437e-06
3.05712e-06
0.000940263
0.000941182
0.000942329
0.000942984
0.000943382
0.000943594
0.000943662
0.000943619
0.000943489
0.000943287
0.000943023
0.000942699
0.000942317
0.000941872
0.000941357
0.000940759
0.000940062
0.000939247
0.000938294
0.000937188
0.000935926
0.000934566
0.000932889
0.000930651
0.000927302
0.000919934
0.000916278
0.000912274
0.000908412
1.06933e-05
1.08033e-05
1.03651e-05
9.3503e-06
7.69231e-06
6.38594e-06
5.4443e-06
4.66078e-06
4.0921e-06
3.57059e-06
3.08041e-06
2.78366e-06
2.65677e-06
2.62021e-06
2.62108e-06
2.6337e-06
2.64005e-06
2.63293e-06
2.61285e-06
2.57683e-06
2.53134e-06
2.66063e-06
3.01779e-06
0.000939661
0.000941472
0.000942728
0.000943355
0.000943667
0.000943792
0.000943784
0.000943682
0.000943506
0.000943272
0.000942986
0.000942651
0.000942267
0.000941828
0.000941324
0.000940741
0.000940061
0.000939263
0.000938333
0.000937297
0.000936285
0.000935046
0.000933261
0.000930066
0.00092011
0.000915045
0.000914833
1.02834e-05
1.03104e-05
9.71134e-06
8.69992e-06
6.88542e-06
5.70242e-06
4.53013e-06
3.81187e-06
3.331e-06
2.95724e-06
2.65112e-06
2.52603e-06
2.5115e-06
2.54927e-06
2.6032e-06
2.64468e-06
2.66267e-06
2.65592e-06
2.62881e-06
2.57717e-06
2.49923e-06
2.60927e-06
2.86653e-06
0.000939687
0.000942135
0.000943246
0.000943699
0.000943889
0.000943918
0.00094384
0.000943689
0.000943483
0.000943232
0.000942945
0.000942621
0.00094226
0.000941853
0.000941391
0.000940853
0.000940219
0.000939464
0.000938679
0.000938075
0.000937456
0.000936563
0.000934288
1.01887e-05
1.04247e-05
9.23873e-06
7.40653e-06
5.4728e-06
4.7008e-06
3.83695e-06
3.16588e-06
2.7206e-06
2.50437e-06
2.39233e-06
2.40278e-06
2.47474e-06
2.57091e-06
2.65573e-06
2.70409e-06
2.71488e-06
2.69519e-06
2.65226e-06
2.57963e-06
2.47094e-06
2.53102e-06
2.73409e-06
0.000939904
0.000942231
0.000943314
0.000943775
0.000943979
0.000944021
0.000943958
0.000943824
0.000943641
0.000943423
0.000943179
0.000942914
0.000942631
0.000942328
0.000942002
0.000941642
0.000941234
0.00094074
0.000940367
0.000940382
0.000940759
0.000941361
6.64323e-06
5.65622e-06
4.58987e-06
4.15328e-06
3.44872e-06
2.7085e-06
2.23655e-06
2.16943e-06
2.2129e-06
2.33543e-06
2.49044e-06
2.63448e-06
2.73711e-06
2.77868e-06
2.76918e-06
2.72828e-06
2.66802e-06
2.5755e-06
2.44205e-06
2.44652e-06
2.58962e-06
0.000939881
0.000942245
0.000943346
0.000943817
0.000944028
0.000944075
0.000944018
0.000943896
0.00094373
0.000943539
0.000943331
0.000943116
0.0009429
0.000942686
0.000942476
0.000942264
0.00094202
0.000941685
0.000941533
0.000941792
0.000942448
0.000943095
5.95261e-06
4.93525e-06
4.24387e-06
3.82585e-06
3.10862e-06
2.45005e-06
1.81879e-06
1.88538e-06
2.06107e-06
2.29489e-06
2.52521e-06
2.70743e-06
2.82392e-06
2.84331e-06
2.79697e-06
2.72868e-06
2.65885e-06
2.5562e-06
2.40897e-06
2.32894e-06
2.36367e-06
0.000939471
0.00094214
0.000943333
0.000943818
0.000944026
0.000944068
0.000944009
0.000943892
0.000943735
0.000943562
0.000943382
0.000943206
0.000943039
0.000942888
0.000942758
0.000942641
0.000942499
0.000942411
0.000942327
0.000942548
0.000943081
0.000943637
0.000944009
4.39582e-06
3.92274e-06
3.31986e-06
2.6355e-06
2.07378e-06
1.45462e-06
1.66042e-06
1.9474e-06
2.26778e-06
2.55683e-06
2.77184e-06
2.90421e-06
2.87478e-06
2.76126e-06
2.65819e-06
2.60496e-06
2.51988e-06
2.39502e-06
2.18564e-06
2.0531e-06
0.000938643
0.000941923
0.000943276
0.000943774
0.000943964
0.000943987
0.000943915
0.00094379
0.000943639
0.000943478
0.000943319
0.000943171
0.000943043
0.000942938
0.000942865
0.000942808
0.000942722
0.000942717
0.00094271
0.000942881
0.000943229
0.000943467
0.000943631
0.000943596
3.38043e-06
2.92111e-06
2.50504e-06
1.77376e-06
1.08972e-06
1.45187e-06
1.83818e-06
2.22481e-06
2.56385e-06
2.81332e-06
2.98869e-06
2.85091e-06
2.59286e-06
2.44438e-06
2.47824e-06
2.47535e-06
2.47658e-06
2.03992e-06
1.63813e-06
0.000941013
0.000940637
0.000941684
0.000942965
0.000943549
0.000943797
0.00094387
0.00094383
0.000943725
0.000943579
0.000943429
0.000943274
0.000943131
0.000943009
0.000942914
0.000942852
0.00094283
0.000942829
0.000942817
0.000942855
0.000942914
0.000943045
0.000943257
0.000943412
0.000943506
0.000943537
2.50086e-06
2.2131e-06
1.42669e-06
1.00092e-06
1.39649e-06
1.77667e-06
2.1604e-06
2.52742e-06
2.82937e-06
3.15028e-06
2.6795e-06
2.02785e-06
1.87081e-06
2.21561e-06
2.46148e-06
2.89798e-06
1.96595e-06
1.07523e-06
0.000940937
0.000941957
0.000942794
0.000943327
0.000943588
0.00094368
0.000943657
0.000943558
0.000943417
0.000943254
0.000943091
0.000942938
0.000942808
0.000942709
0.000942651
0.000942638
0.000942671
0.00094273
0.000942791
0.000942879
0.000942984
0.000943126
0.000943281
0.000943396
0.000943457
0.0009435
9.70249e-07
8.76028e-07
1.26327e-06
1.58724e-06
1.91717e-06
2.29359e-06
2.68079e-06
3.2869e-06
1.93913e-06
9.70253e-07
7.90406e-07
1.66731e-06
2.32467e-06
3.59601e-06
1.65776e-06
4.16779e-07
0.000941584
0.000942557
0.000943102
0.000943333
0.000943422
0.0009434
0.000943298
0.000943144
0.000942964
0.000942779
0.0009426
0.000942445
0.000942327
0.000942256
0.00094224
0.000942285
0.000942387
0.000942519
0.000942668
0.000942832
0.000942981
0.000943143
0.000943245
0.000943335
0.000943431
8.10789e-07
1.15088e-06
1.42346e-06
1.68757e-06
2.08041e-06
2.66325e-06
4.21825e-06
-1.19121e-06
9.65335e-07
2.49109e-06
5.18606e-06
0.000943353
0.000942659
0.000943032
0.000943073
0.000943039
0.000942937
0.000942771
0.000942566
0.000942345
0.000942129
0.000941932
0.000941772
0.000941664
0.000941619
0.000941649
0.000941763
0.000941949
0.000942172
0.00094244
0.000942728
0.00094293
0.000943139
0.000943233
0.000943275
0.000939242
0.000941549
0.00094227
0.000942351
0.000942252
0.000942054
0.000941806
0.000941543
0.00094129
0.000941068
0.000940894
0.000940788
0.000940766
0.000940846
0.00094104
0.000941333
0.000941675
0.000942088
0.000942536
0.000942749
0.000943049
0.00094334
0.000943353
0.00093989
0.000941017
0.000941615
0.000941582
0.000941417
0.000941164
0.000940862
0.000940547
0.000940246
0.000939984
0.000939783
0.000939665
0.000939655
0.000939781
0.000940065
0.000940486
0.000940967
0.000941557
0.000942253
0.000942566
0.000943054
0.00094352
0.00094391
0.000941075
0.000941046
0.000940699
0.000940413
0.000940091
0.000939724
0.000939345
0.000938984
0.000938669
0.000938426
0.00093828
0.000938259
0.000938401
0.00093873
0.00093923
0.000939772
0.000940413
0.000941072
0.000941492
0.000942071
0.000935179
0.000938276
0.000939047
0.000939045
0.000938772
0.000938372
0.000937929
0.000937499
0.00093712
0.000936821
0.00093663
0.000936577
0.000936696
0.000937008
0.000937524
0.000938213
0.000938975
0.000939867
0.000940601
0.000941793
0.000933774
0.000936683
0.000937734
0.000937718
0.000937359
0.000936858
0.000936316
0.000935796
0.000935341
0.000934983
0.000934749
0.000934672
0.000934785
0.000935116
0.000935714
0.000936614
0.000937569
0.000938733
0.000939271
0.000935227
0.000936414
0.000936838
0.000936459
0.000935858
0.000935182
0.000934501
0.000933872
0.000933337
0.000932926
0.000932671
0.000932607
0.000932772
0.000933215
0.000934013
0.000935158
0.000936469
0.000938026
0.000937664
0.000940581
0.00093732
0.000936269
0.000935217
0.000934224
0.000933309
0.000932458
0.000931706
0.000931091
0.000930641
0.000930388
0.000930364
0.000930605
0.000931147
0.00093204
0.00093318
0.000934469
0.000935758
0.00093634
0.000932768
0.000933481
0.000933229
0.000932173
0.000931119
0.000930118
0.000929247
0.000928556
0.000928079
0.000927843
0.000927871
0.000928177
0.000928763
0.000929622
0.000930626
0.000931602
0.000933797
0.000936206
0.000940067
0.00093325
0.000932063
0.000930209
0.000928746
0.000927486
0.000926448
0.000925662
0.000925157
0.000924949
0.000925046
0.000925441
0.000926109
0.000927015
0.000928036
0.000928668
0.000931472
0.000923041
0.000927633
0.000927101
0.00092576
0.000924364
0.000923181
0.000922298
0.000921762
0.000921584
0.000921758
0.000922255
0.000923023
0.000924032
0.000925377
0.000927084
0.000932714
0.000923774
0.000926807
0.000924826
0.000922816
0.000920889
0.000919412
0.000918364
0.000917767
0.000917608
0.000917854
0.000918436
0.000919236
0.000920078
0.000920898
0.000921394
0.000933676
0.000932265
0.000923996
0.000919873
0.000916884
0.000914969
0.000913703
0.000913026
0.000912895
0.000913262
0.00091404
0.000915072
0.000915974
0.000916279
0.000915875
0.000943123
0.000922898
0.000916291
0.000912049
0.000909605
0.000908128
0.000907363
0.000907263
0.000907808
0.000908951
0.000910592
0.000912257
0.000913247
0.000912444
0.000907656
0.000897925
0.000903852
0.000903701
0.000902395
0.000901237
0.000900516
0.000900454
0.000901191
0.000902859
0.000905594
0.000908932
0.000912869
0.000914311
0.000911083
0.000889169
0.000895267
0.00089619
0.000894943
0.000893527
0.000892533
0.000892234
0.000892835
0.000894563
0.000897731
0.000901595
0.000908017
0.000911338
0.00091364
0.000891951
0.000892084
0.000890128
0.000887436
0.000885078
0.000883424
0.000882587
0.000882747
0.000884314
0.000888125
0.000894362
0.00090514
0.000907331
0.000910359
0.000894627
0.000885183
0.000879639
0.000875751
0.000873171
0.000871546
0.00087083
0.000871328
0.000873818
0.000879888
0.000891369
0.000911681
0.000879421
0.000872711
0.000868753
0.000864498
0.000861516
0.000859279
0.000857505
0.000856104
0.000855022
0.000854987
0.000852181
0.000908528
0.000871242
0.000860352
0.000853126
0.000849165
0.000846326
0.000843547
0.000840179
0.000835312
0.000827653
0.000810442
0.000782119
0.000782525
0.000826647
0.000835556
0.000835597
0.000834452
0.000832791
0.00083036
0.000826959
0.000822255
0.000815852
0.000803108
0.000783419
0.000781598
0.000794237
0.000808737
0.000816404
0.000818908
0.000818985
0.000817159
0.000813529
0.000807848
0.000799754
0.000785623
0.00077102
0.000764755
0.000751378
0.000773284
0.000789425
0.000800423
0.000804961
0.000806314
0.000805212
0.000802006
0.000796756
0.000789427
0.00077833
0.000766114
0.000754349
0.000748193
0.000735716
0.000730315
0.000741088
0.000767774
0.000785243
0.000792217
0.000794738
0.000794297
0.00079162
0.00078707
0.000780873
0.000772465
0.000762488
0.00075135
0.000747975
0.000734226
0.000726396
0.000644175
0.000642547
0.000720217
0.000756008
0.000773826
0.000781606
0.000784448
0.000784092
0.000781444
0.00077695
0.000770831
0.000762889
0.000752391
0.000743791
0.000739472
0.000716263
0.000701049
0.000686861
0.000710486
0.00072493
0.000724991
0.000714428
0.000692474
0.00069696
0.000709986
0.000742089
0.000759863
0.000769571
0.000774384
0.000775801
0.000774657
0.000771503
0.000766627
0.000760173
0.000752117
0.000741434
0.000732298
0.000719277
0.000697022
0.000686687
0.000674949
0.000662904
0.00075721
0.000775078
0.000771601
0.000758643
0.000747211
0.000749342
0.000746094
0.000739778
0.000729553
0.000731261
0.000738169
0.000751174
0.00076013
0.000765495
0.00076784
0.000767734
0.000765618
0.000761808
0.000756481
0.000749729
0.000741561
0.000731262
0.00072158
0.000709902
0.00069233
0.000676898
0.000663064
0.000649902
0.000635156
0.000634583
0.000450527
0.000450707
0.000450884
0.000450941
0.000450954
0.000801241
0.000819606
0.00080973
0.000788855
0.00079291
0.000785711
0.000774732
0.000767218
0.000764953
0.000760569
0.000755694
0.000750103
0.000748695
0.000750744
0.000755793
0.000759502
0.000761431
0.000761502
0.000759863
0.00075669
0.000752133
0.000746293
0.000739241
0.000731016
0.000721171
0.00071132
0.000699402
0.000679676
0.000664065
0.000650133
0.000639167
0.000633026
0.000633745
0.000450333
0.000450587
0.00045081
0.000450911
0.000450976
0.000999251
0.00102256
0.000852538
0.000874373
0.000861453
0.000835458
0.000835084
0.000821429
0.000806964
0.000803701
0.000796284
0.000787841
0.000780323
0.000774898
0.00076949
0.000764456
0.000759729
0.000757089
0.000756368
0.000757098
0.000757367
0.000756696
0.000754858
0.000751808
0.000747563
0.000742151
0.000735582
0.000727838
0.00071885
0.000708237
0.00069688
0.000683454
0.000666103
0.000649604
0.000633951
0.00062533
0.000623534
0.00062854
0.000449136
0.000449891
0.000450421
0.000450776
0.000450986
0.000451147
0.000994181
0.000985231
0.00094126
0.000899164
0.000890256
0.000871039
0.000851327
0.000843215
0.000831293
0.000819362
0.000811973
0.000803579
0.000795159
0.000787439
0.000780863
0.000774752
0.000769202
0.000764203
0.00076042
0.000757732
0.000755788
0.0007537
0.00075108
0.000747689
0.000743408
0.000738178
0.000731963
0.000724726
0.000716411
0.000706896
0.000695855
0.000683567
0.000668557
0.000651376
0.000632438
0.000618819
0.000611891
0.000607857
0.000579812
0.000522332
0.000507516
0.000509021
0.000445548
0.000446888
0.000447587
0.000448469
0.000449019
0.000449768
0.000450377
0.00045084
0.000451219
0.000451534
0.000994858
0.000975292
0.000943176
0.0009124
0.000894359
0.000876615
0.000859781
0.000848409
0.000836881
0.000825887
0.000817088
0.000807992
0.000799151
0.000790995
0.000783653
0.00077689
0.000770719
0.000765116
0.000760291
0.000756141
0.000752414
0.000748646
0.000744546
0.000739901
0.000734574
0.000728469
0.000721516
0.000713648
0.000704784
0.000694774
0.000683386
0.000670711
0.00065586
0.000639954
0.00062317
0.000608423
0.000596365
0.000585588
0.000553228
0.000517826
0.000504829
0.00050328
0.000490247
0.000481082
0.000484367
0.000444181
0.00044938
0.000450457
0.00045036
0.000449068
0.000446786
0.000445963
0.000447316