/*--------------------------------*- C++ -*----------------------------------*\
| =========                 |                                                 |
| \\      /  F ield         | OpenFOAM: The Open Source CFD Toolbox           |
|  \\    /   O peration     | Version:  2412                                  |
|   \\  /    A nd           | Website:  www.openfoam.com                      |
|    \\/     M anipulation  |                                                 |
\*---------------------------------------------------------------------------*/
FoamFile
{
    version     2.0;
    format      ascii;
    arch        "LSB;label=32;scalar=64";
    class       surfaceScalarField;
    location    "250";
    object      phi;
}
// * * * * * * * * * * * * * * * * * * * * * * * * * * * * * * * * * * * * * //

dimensions      [0 3 -1 0 0 0 0];

oriented        oriented;

internalField   nonuniform List<scalar> 
9663
(
5.45268e-18
2.30362e-24
4.1283e-23
5.45269e-18
-8.27383e-25
-2.16306e-23
5.45268e-18
1.62334e-24
7.08187e-24
5.45269e-18
3.78164e-25
-5.82735e-24
5.45269e-18
5.05637e-25
-6.63021e-25
5.45269e-18
4.41533e-25
-6.05723e-26
5.45269e-18
2.63831e-25
-1.27729e-24
5.45269e-18
2.09028e-25
-4.71092e-25
5.45269e-18
1.41123e-25
-3.93703e-25
5.45269e-18
9.83965e-26
-4.57029e-25
5.45269e-18
8.37702e-26
-3.37756e-25
5.45269e-18
6.95704e-26
-2.88213e-25
5.45269e-18
6.11032e-26
-2.51511e-25
5.45269e-18
5.32841e-26
-2.18902e-25
5.4527e-18
4.66326e-26
-1.86276e-25
5.4527e-18
4.10748e-26
-1.65143e-25
5.4527e-18
3.64808e-26
-1.45212e-25
5.4527e-18
3.3076e-26
-1.29849e-25
5.4527e-18
2.97633e-26
-1.2109e-25
5.4527e-18
2.73685e-26
-1.09312e-25
5.4527e-18
2.51495e-26
-1.02795e-25
5.4527e-18
2.29253e-26
-9.25172e-26
5.4527e-18
2.09383e-26
-8.84896e-26
5.4527e-18
1.94366e-26
-7.96874e-26
5.4527e-18
1.79329e-26
-7.54383e-26
5.4527e-18
1.71102e-26
-6.82192e-26
5.4527e-18
1.62827e-26
-6.43419e-26
5.4527e-18
1.60158e-26
-6.48433e-26
5.4527e-18
1.54003e-26
-6.15066e-26
5.4527e-18
1.47566e-26
-5.4944e-26
5.4527e-18
1.36454e-26
-4.87155e-26
5.4527e-18
1.33399e-26
-4.23951e-26
5.4527e-18
1.22462e-26
-4.29264e-26
5.4527e-18
1.18996e-26
-3.63595e-26
5.4527e-18
1.03572e-26
-3.56033e-26
5.4527e-18
1.02582e-26
-3.52722e-26
5.4527e-18
1.00973e-26
-3.97976e-26
5.4527e-18
1.07842e-26
-3.35194e-26
5.4527e-18
9.27576e-27
-3.08274e-26
5.4527e-18
9.07389e-27
-2.348e-26
5.4527e-18
7.55578e-27
-2.30937e-26
5.4527e-18
8.13975e-27
-2.69121e-26
5.4527e-18
7.69741e-27
-2.38826e-26
5.4527e-18
7.01562e-27
-1.49918e-26
5.4527e-18
5.36041e-27
-9.30159e-27
5.4527e-18
5.23282e-27
-1.85015e-27
5.4527e-18
3.80933e-27
-7.5327e-27
5.4527e-18
4.18805e-27
-2.10597e-28
5.4527e-18
2.11328e-27
-4.32468e-27
5.4527e-18
2.90711e-27
-4.61478e-27
5.4527e-18
2.63792e-27
-1.49557e-26
5.4527e-18
4.31167e-27
-6.4407e-27
5.4527e-18
2.75117e-27
-8.16497e-27
5.4527e-18
3.10001e-27
3.02851e-27
5.4527e-18
9.76405e-28
-2.73686e-27
5.4527e-18
2.00411e-27
-1.80329e-27
5.4527e-18
1.72294e-27
-1.45565e-26
5.4527e-18
3.53145e-27
-3.88305e-27
5.4527e-18
2.01663e-27
-7.72735e-27
5.4527e-18
2.7468e-27
4.22591e-27
5.4527e-18
1.57304e-28
-1.04161e-27
5.4527e-18
7.4202e-28
2.84269e-27
5.4527e-18
-6.53937e-28
-5.49722e-27
5.4527e-18
1.09347e-27
-2.14549e-27
5.4527e-18
9.17633e-29
-8.58488e-27
5.4527e-18
1.88219e-27
-4.52235e-27
5.4527e-18
7.79338e-28
-1.03469e-26
5.4527e-18
2.34802e-27
-6.94235e-27
5.4527e-18
1.22681e-27
-1.24704e-26
5.4527e-18
2.69334e-27
-9.32832e-27
5.4527e-18
1.55084e-27
-1.43693e-26
5.4527e-18
2.98756e-27
-1.07417e-26
5.4527e-18
2.20701e-27
-1.72592e-26
5.4527e-18
4.30054e-27
-1.73951e-26
5.4527e-18
4.42438e-27
-2.58983e-26
5.4527e-18
5.97206e-27
-1.58782e-26
5.4527e-18
3.9067e-27
-1.59108e-26
5.4527e-18
3.89686e-27
-5.128e-27
5.4527e-18
1.53805e-27
-9.44283e-27
5.4527e-18
2.25221e-27
-9.43739e-27
5.4527e-18
2.30569e-27
-1.7742e-26
5.4527e-18
3.56122e-27
-8.30806e-27
5.4527e-18
1.80085e-27
-7.45264e-27
5.4527e-18
1.5394e-27
3.1035e-27
5.4527e-18
-7.56502e-28
-8.38427e-28
5.4527e-18
-4.42904e-28
-3.76685e-28
5.4527e-18
-3.5049e-28
-8.41744e-27
5.4527e-18
9.12439e-28
1.26238e-27
5.4527e-18
-6.87848e-28
1.10777e-27
5.4527e-18
-5.9669e-28
1.10327e-26
5.4527e-18
-2.85187e-27
7.81537e-27
5.4527e-18
-2.7527e-27
1.03972e-26
5.4527e-18
-3.68637e-27
3.57708e-27
5.4527e-18
-2.18686e-27
6.23812e-27
5.4527e-18
-2.68714e-27
3.44796e-27
5.4527e-18
-1.72561e-27
3.29242e-27
5.4527e-18
-1.96846e-27
7.00351e-27
5.4527e-18
-1.69631e-27
3.21951e-27
5.4527e-18
-8.81885e-28
-9.90384e-27
-1.2108e-29
-4.66415e-27
7.7234e-18
-1.6013e-24
6.14343e-23
7.72342e-18
1.31641e-24
-4.50528e-23
7.72342e-18
-6.63935e-25
1.75983e-23
7.72342e-18
3.17066e-25
-5.50214e-24
7.72343e-18
1.72658e-25
-6.96125e-25
7.72343e-18
8.69748e-26
7.13255e-25
7.72343e-18
1.11718e-25
-1.24307e-24
7.72343e-18
5.38705e-26
-2.64197e-25
7.72343e-18
3.73582e-26
-2.28616e-25
7.72343e-18
2.47313e-26
-3.82473e-25
7.72343e-18
2.41588e-26
-2.68048e-25
7.72343e-18
2.21355e-26
-2.18055e-25
7.72343e-18
2.24359e-26
-1.95036e-25
7.72343e-18
1.9977e-26
-1.67768e-25
7.72343e-18
1.94176e-26
-1.43384e-25
7.72343e-18
1.70207e-26
-1.246e-25
7.72343e-18
1.57568e-26
-1.11428e-25
7.72343e-18
1.36707e-26
-9.59547e-26
7.72343e-18
1.23722e-26
-9.21505e-26
7.72343e-18
1.13436e-26
-8.10044e-26
7.72343e-18
1.00263e-26
-7.83057e-26
7.72343e-18
9.31299e-27
-6.85009e-26
7.72343e-18
8.26299e-27
-6.84607e-26
7.72343e-18
8.21782e-27
-6.02384e-26
7.72343e-18
7.50733e-27
-5.93207e-26
7.72344e-18
7.74618e-27
-5.13092e-26
7.72344e-18
6.78274e-27
-5.29079e-26
7.72344e-18
7.51393e-27
-4.79197e-26
7.72344e-18
6.84216e-27
-4.96842e-26
7.72344e-18
7.31128e-27
-4.09774e-26
7.72344e-18
6.65651e-27
-3.78195e-26
7.72344e-18
6.87076e-27
-3.23432e-26
7.72344e-18
6.35025e-27
-3.31993e-26
7.72344e-18
6.01111e-27
-2.69164e-26
7.72344e-18
4.80383e-27
-2.76942e-26
7.72344e-18
4.83695e-27
-2.64716e-26
7.72344e-18
5.15259e-27
-3.24442e-26
7.72344e-18
5.60148e-27
-2.59945e-26
7.72344e-18
4.76031e-27
-2.45244e-26
7.72344e-18
4.31857e-27
-1.56089e-26
7.72344e-18
2.61626e-27
-2.09492e-26
7.72344e-18
3.55851e-27
-1.46831e-26
7.72344e-18
2.751e-27
-2.13016e-26
7.72344e-18
3.55842e-27
-8.4303e-27
7.72344e-18
2.59205e-27
-7.64305e-27
7.72344e-18
2.71323e-27
1.23847e-27
7.72344e-18
2.27903e-27
-5.16816e-27
7.72344e-18
1.66115e-27
2.85349e-27
7.72344e-18
3.82983e-28
-3.2173e-27
7.72344e-18
-1.94939e-29
-1.844e-28
7.72344e-18
9.91209e-28
-1.30014e-26
7.72344e-18
1.69108e-27
-3.01622e-27
7.72344e-18
1.51188e-27
-6.06469e-27
7.72344e-18
8.81295e-28
5.61691e-27
7.72344e-18
-5.03179e-28
-3.22638e-27
7.72344e-18
-7.85555e-28
2.85333e-27
7.72344e-18
3.0186e-28
-1.37603e-26
7.72344e-18
1.31609e-27
-2.83727e-28
7.72344e-18
1.1534e-27
-6.55334e-27
7.72344e-18
1.00752e-27
7.17453e-27
7.72344e-18
-1.53866e-28
-4.51105e-27
7.72344e-18
-5.63979e-28
5.25329e-27
7.72344e-18
-8.58807e-28
-8.82172e-27
7.72344e-18
-6.66301e-28
1.23228e-27
7.72344e-18
-5.52257e-28
-1.06164e-26
7.72344e-18
-4.10805e-28
-7.09842e-28
7.72344e-18
-2.52185e-28
-1.21344e-26
7.72344e-18
-2.2914e-28
-2.84787e-27
7.72344e-18
-2.71074e-29
-1.37957e-26
7.72344e-18
-5.89817e-29
-5.30739e-27
7.72344e-18
5.12229e-29
-1.48998e-26
7.72344e-18
-4.19144e-29
-7.10584e-27
7.72344e-18
-1.78809e-28
-1.73556e-26
7.72344e-18
5.15246e-28
-1.19521e-26
7.72344e-18
1.51174e-27
-2.39068e-26
7.72344e-18
2.8968e-27
-1.2198e-26
7.72344e-18
2.21591e-27
-1.33602e-26
7.72344e-18
1.78275e-27
-1.98924e-27
7.72344e-18
-1.71611e-28
-1.00752e-26
7.72344e-18
1.04277e-28
-6.04734e-27
7.72344e-18
6.85735e-28
-1.72634e-26
7.72344e-18
2.01242e-27
-6.74649e-27
7.72344e-18
1.437e-27
-5.67749e-27
7.72344e-18
7.17307e-28
3.96875e-27
7.72344e-18
-1.12731e-27
-1.81072e-27
7.72344e-18
-1.09558e-27
1.4496e-27
7.72344e-18
-6.0503e-28
-8.80506e-27
7.72344e-18
7.31945e-28
1.85911e-27
7.72344e-18
6.77894e-28
6.67746e-28
7.72344e-18
2.12074e-28
1.05365e-26
7.72344e-18
-1.33724e-27
5.22093e-27
7.72344e-18
-1.67631e-27
1.04532e-26
7.72344e-18
-2.36306e-27
7.70578e-28
7.72344e-18
-1.81023e-27
7.33133e-27
7.72344e-18
-2.2297e-27
2.82897e-28
7.72344e-18
-2.20796e-27
3.48102e-27
7.72344e-18
-3.4716e-27
8.61344e-27
7.72344e-18
-2.00631e-27
-4.27071e-27
7.72344e-18
-2.74029e-27
-1.62452e-26
-1.03835e-27
9.45654e-28
5.45268e-18
4.02493e-23
5.45269e-18
-2.11679e-23
5.45268e-18
7.93789e-24
5.45269e-18
-5.21048e-24
5.45269e-18
-2.95428e-25
5.45269e-18
1.15348e-25
5.45269e-18
-1.16555e-24
5.45269e-18
-3.52219e-25
5.45269e-18
-3.47365e-25
5.45269e-18
-4.23045e-25
5.45269e-18
-3.03312e-25
5.45269e-18
-2.4622e-25
5.45269e-18
-2.13469e-25
5.45269e-18
-1.82596e-25
5.4527e-18
-1.51804e-25
5.4527e-18
-1.36256e-25
5.4527e-18
-1.14931e-25
5.4527e-18
-1.07133e-25
5.4527e-18
-9.14193e-26
5.4527e-18
-8.85957e-26
5.4527e-18
-7.76037e-26
5.4527e-18
-7.66268e-26
5.4527e-18
-6.82922e-26
5.4527e-18
-6.63417e-26
5.4527e-18
-5.94651e-26
5.4527e-18
-5.74584e-26
5.4527e-18
-5.4005e-26
5.4527e-18
-5.3652e-26
5.4527e-18
-5.00754e-26
5.4527e-18
-4.51765e-26
5.4527e-18
-3.83691e-26
5.4527e-18
-3.60025e-26
5.4527e-18
-3.27991e-26
5.4527e-18
-3.06326e-26
5.4527e-18
-2.95412e-26
5.4527e-18
-3.3508e-26
5.4527e-18
-3.17883e-26
5.4527e-18
-3.01343e-26
5.4527e-18
-2.28605e-26
5.4527e-18
-2.19757e-26
5.4527e-18
-2.04124e-26
5.4527e-18
-2.40501e-26
5.4527e-18
-1.86048e-26
5.4527e-18
-1.38192e-26
5.4527e-18
-3.24241e-27
5.4527e-18
-3.6943e-27
5.4527e-18
-5.69364e-28
5.4527e-18
-1.05324e-27
5.4527e-18
-6.89084e-28
5.4527e-18
-1.06246e-26
5.4527e-18
-7.6088e-27
5.4527e-18
-9.64898e-27
5.4527e-18
4.64064e-28
5.4527e-18
-2.12282e-27
5.4527e-18
1.99461e-27
5.4527e-18
-1.1549e-26
5.4527e-18
-5.18263e-27
5.4527e-18
-8.84417e-27
5.4527e-18
3.27993e-27
5.4527e-18
-1.36916e-27
5.4527e-18
4.57315e-27
5.4527e-18
-3.7575e-27
5.4527e-18
-2.76853e-28
5.4527e-18
-7.28974e-27
5.4527e-18
-3.33339e-27
5.4527e-18
-9.50445e-27
5.4527e-18
-5.45139e-27
5.4527e-18
-1.11578e-26
5.4527e-18
-7.76481e-27
5.4527e-18
-1.28628e-26
5.4527e-18
-9.19827e-27
5.4527e-18
-1.47476e-26
5.4527e-18
-1.26539e-26
5.4527e-18
-2.28835e-26
5.4527e-18
-1.70944e-26
5.4527e-18
-1.71116e-26
5.4527e-18
-6.355e-27
5.4527e-18
-7.63666e-27
5.4527e-18
-5.64519e-27
5.4527e-18
-1.43441e-26
5.4527e-18
-1.11305e-26
5.4527e-18
-9.0249e-27
5.4527e-18
-3.35133e-28
5.4527e-18
4.70589e-28
5.4527e-18
1.51065e-27
5.4527e-18
-6.27042e-27
5.4527e-18
-3.03114e-27
5.4527e-18
-1.15554e-27
5.4527e-18
7.48663e-27
5.4527e-18
7.65884e-27
5.4527e-18
1.04781e-26
5.4527e-18
5.48903e-27
5.4527e-18
6.23295e-27
5.4527e-18
2.19543e-27
5.4527e-18
5.2945e-27
5.4527e-18
-1.30488e-27
5.4527e-18
7.03606e-27
5.4527e-18
-9.77184e-28
5.4527e-18
-1.2568e-26
-2.46972e-27
6.77808e-18
3.37623e-23
3.64889e-23
6.7781e-18
-1.8568e-23
-1.73869e-23
6.77809e-18
5.85859e-24
8.50396e-24
6.7781e-18
-4.43772e-24
-3.12149e-24
6.7781e-18
-2.80698e-25
7.95394e-25
6.7781e-18
1.68363e-25
8.63627e-25
6.7781e-18
-7.1746e-25
-2.33566e-25
6.7781e-18
-8.74994e-26
1.5147e-25
6.7781e-18
-1.13334e-25
1.25019e-25
6.7781e-18
-2.10134e-25
-3.54024e-26
6.7781e-18
-1.47113e-25
3.73183e-26
6.7781e-18
-1.36517e-25
1.5059e-26
6.7781e-18
-1.25453e-25
2.28528e-26
6.7781e-18
-1.10899e-25
1.04524e-26
6.7781e-18
-9.4787e-26
1.82729e-26
6.7781e-18
-8.32789e-26
1.11708e-26
6.7781e-18
-7.18892e-26
7.99017e-27
6.77811e-18
-6.07311e-26
6.38345e-27
6.77811e-18
-5.47641e-26
-7.58174e-27
6.77811e-18
-4.43557e-26
-1.52143e-27
6.77811e-18
-3.98087e-26
-1.36062e-26
6.77811e-18
-3.39109e-26
-3.35643e-27
6.77811e-18
-3.37082e-26
-1.52569e-26
6.77811e-18
-3.00666e-26
-3.31779e-27
6.77811e-18
-2.93888e-26
-1.03537e-26
6.77811e-18
-2.62987e-26
1.54151e-27
6.77811e-18
-2.42203e-26
-7.86937e-27
6.77811e-18
-2.71046e-26
-8.66778e-28
6.77811e-18
-2.46551e-26
-9.76469e-27
6.77811e-18
-2.18973e-26
2.06397e-27
6.77811e-18
-1.84189e-26
-3.32061e-27
6.77811e-18
-1.44128e-26
5.51799e-27
6.77811e-18
-1.59299e-26
-5.11387e-27
6.77811e-18
-1.14733e-26
4.55768e-27
6.77811e-18
-1.24357e-26
-4.19996e-27
6.77811e-18
-1.37904e-26
4.63468e-27
6.77811e-18
-1.89623e-26
-5.74931e-27
6.77811e-18
-1.53621e-26
8.82145e-27
6.77811e-18
-1.53233e-26
1.66683e-28
6.77811e-18
-9.97379e-27
1.30979e-26
6.77811e-18
-7.82326e-27
-3.86386e-27
6.77811e-18
-1.12785e-26
5.44547e-27
6.77811e-18
-7.04895e-27
-7.88521e-27
6.77811e-18
-3.51421e-27
1.14419e-26
6.77811e-18
-5.0929e-28
2.21786e-29
6.77811e-18
3.7405e-27
1.30688e-26
6.77811e-18
2.32091e-28
-5.92688e-27
6.77811e-18
6.41982e-27
7.98618e-27
6.77811e-18
3.83364e-27
-6.01214e-27
6.77811e-18
1.70926e-27
6.85794e-27
6.77811e-18
-7.60521e-27
-9.62179e-27
6.77811e-18
-2.79379e-27
1.212e-26
6.77811e-18
-4.55576e-27
-3.67933e-27
6.77811e-18
4.32088e-27
1.43628e-26
6.77811e-18
2.09979e-27
-6.90687e-27
6.77811e-18
1.98891e-27
9.97897e-27
6.77811e-18
-7.66755e-27
-1.36885e-26
6.77811e-18
-7.72551e-28
1.29694e-26
6.77811e-18
-2.68868e-27
-7.76735e-27
6.77811e-18
6.5989e-27
1.42108e-26
6.77811e-18
4.67696e-27
-1.06789e-26
6.77811e-18
7.63779e-27
7.85616e-27
6.77811e-18
2.81058e-27
-1.40826e-26
6.77811e-18
4.84139e-27
4.93956e-27
6.77811e-18
1.10276e-27
-1.33016e-26
6.77811e-18
3.43427e-27
5.38241e-27
6.77811e-18
3.6706e-30
-1.24319e-26
6.77811e-18
1.77603e-27
5.67729e-27
6.77811e-18
-1.56821e-27
-1.21531e-26
6.77811e-18
-4.45693e-29
5.34883e-27
6.77811e-18
-3.45366e-27
-1.10301e-26
6.77811e-18
-1.35813e-27
6.67898e-27
6.77811e-18
-5.8339e-27
-1.03643e-26
6.77811e-18
-7.41252e-27
8.14162e-27
6.77811e-18
-1.44462e-26
-1.13824e-26
6.77811e-18
-7.98972e-27
1.33473e-26
6.77811e-18
-8.63737e-27
-4.29758e-27
6.77811e-18
-4.23382e-28
1.35523e-26
6.77811e-18
-1.58987e-27
-8.25144e-27
6.77811e-18
-2.60834e-27
7.47419e-27
6.77811e-18
-9.06671e-27
-1.13564e-26
6.77811e-18
-3.9193e-27
1.02611e-26
6.77811e-18
-3.96663e-27
-3.86103e-27
6.77811e-18
3.78108e-27
1.0144e-26
6.77811e-18
2.64185e-27
-8.63109e-27
6.77811e-18
2.07249e-27
4.58101e-27
6.77811e-18
-3.71155e-27
-1.17983e-26
6.77811e-18
1.55331e-27
8.60373e-27
6.77811e-18
6.68546e-28
-5.7913e-27
6.77811e-18
8.8589e-27
8.24023e-27
6.77811e-18
9.01389e-27
-1.15688e-26
6.77811e-18
1.14771e-26
1.6827e-27
6.77811e-18
7.5413e-27
-1.62613e-26
6.77811e-18
8.99076e-27
4.88349e-28
6.77811e-18
7.2487e-27
-1.2919e-26
6.77811e-18
4.77506e-27
1.31129e-27
6.77811e-18
7.32827e-27
-6.25243e-27
6.77811e-18
1.51428e-27
6.90256e-27
6.77811e-18
-5.22912e-27
-1.13871e-26
-1.94955e-27
3.17428e-27
1.56758e-17
1.6933e-23
2.23023e-23
1.56759e-17
-2.33492e-23
-5.16057e-23
1.56759e-17
1.19969e-23
2.70469e-23
1.56759e-17
1.59615e-24
-4.47962e-24
1.56759e-17
8.50182e-25
2.02513e-24
1.56759e-17
1.57833e-24
4.09034e-24
1.56759e-17
6.69361e-25
8.37833e-25
1.56759e-17
6.7535e-25
1.39714e-24
1.56759e-17
4.85224e-25
1.23173e-24
1.56759e-17
3.03576e-25
7.63507e-25
1.56759e-17
2.50283e-25
6.89607e-25
1.56759e-17
2.14678e-25
6.04477e-25
1.56759e-17
1.816e-25
5.13766e-25
1.56759e-17
1.61509e-25
4.41871e-25
1.56759e-17
1.40003e-25
3.86561e-25
1.56759e-17
1.27277e-25
3.36863e-25
1.56759e-17
1.11745e-25
2.91954e-25
1.56759e-17
1.05659e-25
2.58098e-25
1.56759e-17
9.45252e-26
2.22354e-25
1.56759e-17
9.0039e-26
2.00466e-25
1.56759e-17
8.17645e-26
1.7157e-25
1.56759e-17
7.64949e-26
1.60399e-25
1.56759e-17
6.7408e-26
1.41353e-25
1.56759e-17
6.31758e-26
1.36015e-25
1.56759e-17
5.57777e-26
1.21197e-25
1.56759e-17
5.45553e-26
1.18314e-25
1.56759e-17
4.6901e-26
1.05031e-25
1.56759e-17
5.15949e-26
1.08186e-25
1.56759e-17
4.52547e-26
1.0038e-25
1.56759e-17
4.60725e-26
1.00215e-25
1.56759e-17
4.10025e-26
8.67972e-26
1.56759e-17
3.89002e-26
8.08957e-26
1.56759e-17
3.6851e-26
7.23884e-26
1.56759e-17
3.54674e-26
7.22388e-26
1.56759e-17
3.1203e-26
6.51097e-26
1.56759e-17
3.14007e-26
6.90155e-26
1.56759e-17
2.97502e-26
6.86911e-26
1.56759e-17
2.97568e-26
7.40894e-26
1.56759e-17
2.61087e-26
6.54458e-26
1.56759e-17
2.62274e-26
6.31012e-26
1.56759e-17
1.83206e-26
4.69449e-26
1.56759e-17
2.94796e-26
5.49317e-26
1.56759e-17
1.86329e-26
4.21783e-26
1.56759e-17
2.11351e-26
4.33148e-26
1.56759e-17
1.47451e-26
2.56599e-26
1.56759e-17
1.30297e-26
2.38037e-26
1.56759e-17
1.33168e-26
1.21331e-26
1.56759e-17
1.10494e-26
1.57085e-26
1.56759e-17
8.22671e-27
5.59802e-27
1.56759e-17
9.70654e-27
1.66841e-26
1.56759e-17
9.10045e-27
1.88994e-26
1.56759e-17
9.89351e-27
3.11873e-26
1.56759e-17
9.91508e-27
1.98329e-26
1.56759e-17
5.72197e-27
2.06017e-26
1.56759e-17
3.89317e-27
3.88976e-27
1.56759e-17
7.05148e-27
1.62706e-26
1.56759e-17
7.05889e-27
1.50589e-26
1.56759e-17
8.20027e-27
2.76564e-26
1.56759e-17
8.9421e-27
1.09053e-26
1.56759e-17
5.78383e-27
1.36195e-26
1.56759e-17
6.80512e-28
-8.94607e-27
1.56759e-17
2.73182e-27
2.12365e-27
1.56759e-17
-3.95071e-28
-9.948e-27
1.56759e-17
4.70805e-27
6.78855e-27
1.56759e-17
2.0452e-27
-3.48688e-27
1.56759e-17
6.93667e-27
1.18548e-26
1.56759e-17
3.0519e-27
8.8317e-28
1.56759e-17
8.36407e-27
1.58145e-26
1.56759e-17
3.85096e-27
5.40146e-27
1.56759e-17
9.13271e-27
1.99975e-26
1.56759e-17
4.87347e-27
1.0727e-26
1.56759e-17
8.96126e-27
2.35662e-26
1.56759e-17
6.20256e-27
1.66058e-26
1.56759e-17
1.35577e-26
3.47465e-26
1.56759e-17
1.26654e-26
3.46858e-26
1.56759e-17
1.44966e-26
4.67369e-26
1.56759e-17
1.31264e-26
3.11118e-26
1.56759e-17
9.86044e-27
2.93497e-26
1.56759e-17
5.0153e-27
1.01682e-26
1.56759e-17
8.22848e-27
1.96717e-26
1.56759e-17
7.10676e-27
1.8246e-26
1.56759e-17
7.80134e-27
2.8005e-26
1.56759e-17
7.79491e-27
1.48089e-26
1.56759e-17
2.55325e-27
9.98302e-27
1.56759e-17
-3.83789e-29
-6.69241e-27
1.56759e-17
6.71265e-28
8.34523e-29
1.56759e-17
1.15142e-27
-2.48777e-28
1.56759e-17
7.7886e-28
6.90153e-27
1.56759e-17
5.52347e-28
-5.74069e-27
1.56759e-17
-2.77344e-27
-9.69617e-27
1.56759e-17
-5.72723e-27
-2.72477e-26
1.56759e-17
-5.71843e-27
-2.28058e-26
1.56759e-17
-7.03803e-27
-3.18623e-26
1.56759e-17
-4.39823e-27
-1.90469e-26
1.56759e-17
-7.0723e-27
-2.50172e-26
1.56759e-17
-4.874e-27
-1.71759e-26
1.56759e-17
-3.67848e-27
-1.0173e-26
1.56759e-17
-1.73993e-26
-1.81546e-26
1.56759e-17
-1.22489e-26
-2.32749e-26
2.69787e-27
-5.22171e-27
1.83948e-17
-1.65443e-23
-1.13417e-23
1.8395e-17
2.60722e-23
-1.34571e-23
1.83949e-17
-8.52843e-24
3.07875e-23
1.83949e-17
1.35322e-24
-1.10546e-23
1.83949e-17
1.60522e-24
4.77611e-24
1.83949e-17
1.68999e-25
5.22296e-24
1.83949e-17
5.68393e-25
5.55964e-25
1.83949e-17
3.06159e-25
1.69107e-24
1.83949e-17
1.44398e-25
1.40779e-24
1.83949e-17
1.59603e-25
8.78888e-25
1.83949e-17
1.26246e-25
7.85739e-25
1.83949e-17
1.15997e-25
7.05414e-25
1.83949e-17
1.156e-25
5.9438e-25
1.83949e-17
1.03176e-25
5.06061e-25
1.83949e-17
9.72363e-26
4.4871e-25
1.83949e-17
8.17612e-26
3.79064e-25
1.83949e-17
7.94297e-26
3.43628e-25
1.83949e-17
6.21168e-26
2.85062e-25
1.83949e-17
6.63067e-26
2.70021e-25
1.83949e-17
5.20613e-26
2.21095e-25
1.83949e-17
5.38781e-26
2.12685e-25
1.83949e-17
4.08316e-26
1.77656e-25
1.83949e-17
4.45319e-26
1.76945e-25
1.83949e-17
3.62431e-26
1.5274e-25
1.83949e-17
3.88039e-26
1.51182e-25
1.83949e-17
3.18533e-26
1.31596e-25
1.83949e-17
3.48661e-26
1.34686e-25
1.83949e-17
2.99694e-26
1.22703e-25
1.83949e-17
3.39291e-26
1.24937e-25
1.83949e-17
2.92202e-26
1.10057e-25
1.83949e-17
3.05093e-26
1.06438e-25
1.83949e-17
2.70489e-26
9.06067e-26
1.83949e-17
2.86786e-26
9.20613e-26
1.83949e-17
2.28734e-26
7.9394e-26
1.83949e-17
2.14871e-26
8.20948e-26
1.83949e-17
1.6079e-26
7.35438e-26
1.83949e-17
2.51734e-26
8.75739e-26
1.83949e-17
2.08296e-26
7.7995e-26
1.83949e-17
2.37608e-26
8.33575e-26
1.83949e-17
1.36754e-26
6.17511e-26
1.83949e-17
1.71486e-26
6.67523e-26
1.83949e-17
7.40597e-27
4.88729e-26
1.83949e-17
1.87892e-26
6.11294e-26
1.83949e-17
1.05689e-26
3.9917e-26
1.83949e-17
1.82248e-26
4.43066e-26
1.83949e-17
7.068e-27
1.60811e-26
1.83949e-17
1.50187e-26
2.81621e-26
1.83949e-17
4.15778e-27
8.06268e-27
1.83949e-17
7.18398e-27
2.08236e-26
1.83949e-17
-6.4283e-27
4.9011e-27
1.83949e-17
1.19615e-26
3.63847e-26
1.83949e-17
2.2174e-27
1.81748e-26
1.83949e-17
1.51829e-26
3.93249e-26
1.83949e-17
-1.75108e-27
6.33683e-27
1.83949e-17
7.45218e-27
2.51244e-26
1.83949e-17
-1.26376e-26
-1.64605e-27
1.83949e-17
1.35241e-26
3.73464e-26
1.83949e-17
-9.2244e-28
1.02893e-26
1.83949e-17
1.68378e-26
3.51729e-26
1.83949e-17
-3.35244e-27
-4.41878e-27
1.83949e-17
1.13634e-26
1.76496e-26
1.83949e-17
-9.35734e-27
-1.51377e-26
1.83949e-17
7.96607e-27
1.4959e-26
1.83949e-17
-8.58416e-27
-1.00464e-26
1.83949e-17
8.09391e-27
1.94949e-26
1.83949e-17
-7.09564e-27
-4.72006e-27
1.83949e-17
8.89519e-27
2.46054e-26
1.83949e-17
-5.85835e-27
2.18877e-28
1.83949e-17
9.04353e-27
2.85992e-26
1.83949e-17
-4.21134e-27
5.5427e-27
1.83949e-17
9.14707e-27
3.25147e-26
1.83949e-17
-3.65729e-27
1.08061e-26
1.83949e-17
8.62673e-27
3.7996e-26
1.83949e-17
-4.10902e-27
2.06965e-26
1.83949e-17
1.66639e-26
5.47336e-26
1.83949e-17
8.53687e-27
3.41973e-26
1.83949e-17
1.87076e-26
4.88395e-26
1.83949e-17
3.27303e-27
1.77299e-26
1.83949e-17
9.10897e-27
2.86705e-26
1.83949e-17
-4.37905e-27
9.80536e-27
1.83949e-17
1.22779e-26
3.39588e-26
1.83949e-17
6.40169e-27
2.03549e-26
1.83949e-17
1.23647e-26
2.66769e-26
1.83949e-17
-3.30723e-29
2.23147e-27
1.83949e-17
1.98436e-27
4.3836e-27
1.83949e-17
-1.03118e-26
-1.03959e-26
1.83949e-17
5.78083e-27
1.13809e-26
1.83949e-17
-3.24175e-28
-1.11009e-27
1.83949e-17
8.51002e-27
6.32905e-27
1.83949e-17
-3.96377e-27
-2.04059e-26
1.83949e-17
-4.28434e-28
-1.45834e-26
1.83949e-17
-1.31701e-26
-3.64773e-26
1.83949e-17
-3.5815e-27
-1.90886e-26
1.83949e-17
-1.37787e-26
-3.44445e-26
1.83949e-17
-2.88647e-27
-1.03206e-26
1.83949e-17
-1.325e-26
-2.96266e-26
1.83949e-17
-9.89413e-27
2.38952e-27
1.83949e-17
-1.12815e-27
-7.44822e-27
1.83949e-17
1.10199e-27
-1.29678e-26
-5.32843e-27
-2.01372e-26
1.56758e-17
-3.22227e-23
2.30931e-23
1.56759e-17
2.02299e-23
-4.77544e-23
1.56759e-17
-4.97564e-24
2.37769e-23
1.56759e-17
5.23849e-24
-6.68e-24
1.56759e-17
1.13566e-24
1.49734e-24
1.56759e-17
5.01828e-25
3.40749e-24
1.56759e-17
1.246e-24
2.79782e-27
1.56759e-17
4.4117e-25
9.0251e-25
1.56759e-17
3.85942e-25
7.9142e-25
1.56759e-17
3.80951e-25
4.3004e-25
1.56759e-17
2.8637e-25
3.96078e-25
1.56759e-17
2.42019e-25
3.7143e-25
1.56759e-17
2.27128e-25
2.95741e-25
1.56759e-17
1.99553e-25
2.70396e-25
1.56759e-17
1.74218e-25
2.30737e-25
1.56759e-17
1.57278e-25
2.11484e-25
1.56759e-17
1.34068e-25
1.78026e-25
1.56759e-17
1.24576e-25
1.62289e-25
1.56759e-17
1.02595e-25
1.35417e-25
1.56759e-17
9.82757e-26
1.18628e-25
1.56759e-17
8.01065e-26
1.0412e-25
1.56759e-17
8.06721e-26
9.24701e-26
1.56759e-17
6.79918e-26
8.52598e-26
1.56759e-17
6.97172e-26
7.77598e-26
1.56759e-17
5.99682e-26
7.42812e-26
1.56759e-17
6.17053e-26
6.85262e-26
1.56759e-17
5.53794e-26
6.99313e-26
1.56759e-17
5.89476e-26
6.165e-26
1.56759e-17
5.36211e-26
6.28546e-26
1.56759e-17
5.28439e-26
5.70137e-26
1.56759e-17
4.4607e-26
5.58652e-26
1.56759e-17
4.53189e-26
5.00796e-26
1.56759e-17
3.92796e-26
4.82902e-26
1.56759e-17
3.88242e-26
4.35969e-26
1.56759e-17
3.31056e-26
4.38581e-26
1.56759e-17
4.01089e-26
4.37943e-26
1.56759e-17
3.70166e-26
4.37397e-26
1.56759e-17
4.04463e-26
4.46696e-26
1.56759e-17
2.9846e-26
4.23426e-26
1.56759e-17
3.15232e-26
3.64646e-26
1.56759e-17
2.18856e-26
3.76464e-26
1.56759e-17
3.0121e-26
2.8289e-26
1.56759e-17
2.00187e-26
2.92164e-26
1.56759e-17
2.34458e-26
2.17131e-26
1.56759e-17
8.98207e-27
2.08967e-26
1.56759e-17
1.50094e-26
1.81683e-26
1.56759e-17
4.30091e-27
1.33685e-26
1.56759e-17
8.02394e-27
9.86486e-27
1.56759e-17
-1.22154e-27
6.32125e-27
1.56759e-17
1.39328e-26
1.53644e-26
1.56759e-17
7.56471e-27
1.27045e-26
1.56759e-17
1.9607e-26
2.01038e-26
1.56759e-17
2.43358e-27
1.38425e-26
1.56759e-17
1.04525e-26
1.33544e-26
1.56759e-17
-6.30262e-27
7.56353e-27
1.56759e-17
1.47004e-26
1.44032e-26
1.56759e-17
2.3434e-27
8.4599e-27
1.56759e-17
1.91893e-26
1.59774e-26
1.56759e-17
-2.36662e-27
9.29297e-27
1.56759e-17
1.05047e-26
7.98715e-27
1.56759e-17
-8.82673e-27
2.015e-27
1.56759e-17
6.50658e-27
9.54488e-28
1.56759e-17
-6.87064e-27
-2.21621e-27
1.56759e-17
8.10799e-27
2.73773e-27
1.56759e-17
-3.65257e-27
6.4539e-29
1.56759e-17
1.04322e-26
5.87632e-27
1.56759e-17
-1.15633e-27
3.6598e-27
1.56759e-17
1.20838e-26
8.31066e-27
1.56759e-17
1.44635e-27
6.80392e-27
1.56759e-17
1.3617e-26
1.03095e-26
1.56759e-17
3.3132e-27
8.2149e-27
1.56759e-17
1.51674e-26
1.26611e-26
1.56759e-17
6.00605e-27
1.38047e-26
1.56759e-17
2.53769e-26
2.12208e-26
1.56759e-17
1.62901e-26
2.24419e-26
1.56759e-17
2.81813e-26
2.37577e-26
1.56759e-17
1.02956e-26
2.11451e-26
1.56759e-17
1.66103e-26
1.54195e-26
1.56759e-17
1.92126e-27
1.41482e-26
1.56759e-17
1.68261e-26
1.15293e-26
1.56759e-17
9.51125e-27
1.27898e-26
1.56759e-17
1.76111e-26
1.20896e-26
1.56759e-17
2.9197e-27
9.4781e-27
1.56759e-17
5.35464e-27
3.92061e-27
1.56759e-17
-7.347e-27
2.10454e-27
1.56759e-17
5.8029e-27
2.70477e-28
1.56759e-17
-1.06756e-27
8.3705e-31
1.56759e-17
7.67583e-27
1.29106e-27
1.56759e-17
-6.68548e-27
-1.61239e-27
1.56759e-17
-2.68979e-27
-6.654e-27
1.56759e-17
-1.68183e-26
-1.12597e-26
1.56759e-17
-8.47065e-27
-1.49629e-26
1.56759e-17
-1.79562e-26
-1.62529e-26
1.56759e-17
-7.1036e-27
-1.48525e-26
1.56759e-17
-1.65931e-26
-1.1383e-26
1.56759e-17
-4.11685e-27
-1.40906e-26
1.56759e-17
-1.70508e-26
3.35935e-28
1.56759e-17
-2.75813e-27
-2.5062e-26
1.56759e-17
1.48909e-27
-9.05746e-27
-1.00103e-27
-4.63923e-27
6.77808e-18
3.53683e-23
6.7781e-18
-1.82835e-23
6.77809e-18
7.39372e-24
6.7781e-18
-4.27722e-24
6.7781e-18
3.30422e-25
6.7781e-18
9.44107e-26
6.7781e-18
-7.55538e-25
6.7781e-18
-2.50256e-25
6.7781e-18
-1.8172e-25
6.7781e-18
-3.28387e-25
6.7781e-18
-1.82443e-25
6.7781e-18
-1.88002e-25
6.7781e-18
-1.35208e-25
6.7781e-18
-1.32537e-25
6.7781e-18
-9.75751e-26
6.7781e-18
-9.06308e-26
6.7781e-18
-8.00462e-26
6.77811e-18
-6.71277e-26
6.77811e-18
-7.35716e-26
6.77811e-18
-5.38407e-26
6.77811e-18
-6.70585e-26
6.77811e-18
-4.51357e-26
6.77811e-18
-6.03925e-26
6.77811e-18
-3.83372e-26
6.77811e-18
-5.12709e-26
6.77811e-18
-3.03986e-26
6.77811e-18
-4.74721e-26
6.77811e-18
-2.90313e-26
6.77811e-18
-4.37343e-26
6.77811e-18
-2.24112e-26
6.77811e-18
-3.25646e-26
6.77811e-18
-1.48051e-26
6.77811e-18
-2.92639e-26
6.77811e-18
-1.09619e-26
6.77811e-18
-2.85071e-26
6.77811e-18
-1.28903e-26
6.77811e-18
-3.0688e-26
6.77811e-18
-8.3449e-27
6.77811e-18
-2.50125e-26
6.77811e-18
-8.60791e-28
6.77811e-18
-2.82368e-26
6.77811e-18
-1.84098e-27
6.77811e-18
-2.63056e-26
6.77811e-18
8.11961e-27
6.77811e-18
-1.31154e-26
6.77811e-18
1.49621e-26
6.77811e-18
-1.2523e-26
6.77811e-18
1.47833e-26
6.77811e-18
-1.47643e-26
6.77811e-18
8.32467e-27
6.77811e-18
-2.1431e-26
6.77811e-18
1.33773e-26
6.77811e-18
-1.58931e-26
6.77811e-18
2.02637e-26
6.77811e-18
-1.9929e-26
6.77811e-18
1.35691e-26
6.77811e-18
-2.67082e-26
6.77811e-18
1.88819e-26
6.77811e-18
-1.95285e-26
6.77811e-18
2.55597e-26
6.77811e-18
-1.97393e-26
6.77811e-18
2.02041e-26
6.77811e-18
-2.1686e-26
6.77811e-18
1.47193e-26
6.77811e-18
-2.26691e-26
6.77811e-18
1.20341e-26
6.77811e-18
-2.35337e-26
6.77811e-18
1.0773e-26
6.77811e-18
-2.40697e-26
6.77811e-18
9.0511e-27
6.77811e-18
-2.41241e-26
6.77811e-18
8.14501e-27
6.77811e-18
-2.78302e-26
6.77811e-18
3.93706e-27
6.77811e-18
-3.06293e-26
6.77811e-18
1.01605e-26
6.77811e-18
-2.08616e-26
6.77811e-18
1.59557e-26
6.77811e-18
-2.3088e-26
6.77811e-18
8.74172e-27
6.77811e-18
-2.45509e-26
6.77811e-18
1.20262e-26
6.77811e-18
-1.37306e-26
6.77811e-18
1.75279e-26
6.77811e-18
-1.61873e-26
6.77811e-18
1.14002e-26
6.77811e-18
-1.85279e-26
6.77811e-18
1.67656e-26
6.77811e-18
-8.88739e-27
6.77811e-18
2.30902e-26
6.77811e-18
-1.06669e-26
6.77811e-18
1.96688e-26
6.77811e-18
-1.41147e-26
6.77811e-18
1.6585e-26
6.77811e-18
-1.34934e-26
6.77811e-18
1.3482e-26
6.77811e-18
-1.00883e-26
6.77811e-18
1.47839e-26
6.77811e-18
-1.75518e-26
7.22057e-27
5.45268e-18
4.11799e-23
2.80718e-24
5.45269e-18
-2.30429e-23
-7.0647e-25
5.45268e-18
6.63557e-24
2.00895e-24
5.45269e-18
-6.52048e-24
3.96297e-25
5.45269e-18
-1.07383e-24
4.94412e-25
5.45269e-18
-3.92603e-25
4.65869e-25
5.45269e-18
-1.43691e-24
3.06358e-25
5.45269e-18
-6.06764e-25
2.42437e-25
5.45269e-18
-4.39193e-25
1.88043e-25
5.45269e-18
-5.16115e-25
1.33484e-25
5.45269e-18
-3.69822e-25
1.17778e-25
5.45269e-18
-3.3242e-25
9.28845e-26
5.45269e-18
-2.84079e-25
8.57075e-26
5.45269e-18
-2.55909e-25
6.90531e-26
5.4527e-18
-2.13506e-25
6.45519e-26
5.4527e-18
-1.9079e-25
5.20212e-26
5.4527e-18
-1.65913e-25
4.98677e-26
5.4527e-18
-1.44216e-25
3.95301e-26
5.4527e-18
-1.33871e-25
3.88086e-26
5.4527e-18
-1.13352e-25
3.04716e-26
5.4527e-18
-1.09381e-25
3.09462e-26
5.4527e-18
-9.24146e-26
2.52734e-26
5.4527e-18
-9.48321e-26
2.5789e-26
5.4527e-18
-8.05767e-26
2.18305e-26
5.4527e-18
-8.16694e-26
2.20997e-26
5.4527e-18
-6.85208e-26
1.97261e-26
5.4527e-18
-7.35649e-26
2.00477e-26
5.4527e-18
-6.59382e-26
1.91169e-26
5.4527e-18
-7.09823e-26
1.85643e-26
5.4527e-18
-5.684e-26
1.73703e-26
5.4527e-18
-5.57334e-26
1.5427e-26
5.4527e-18
-4.45545e-26
1.47906e-26
5.4527e-18
-4.998e-26
1.3099e-26
5.4527e-18
-3.83705e-26
1.35463e-26
5.4527e-18
-4.34073e-26
1.14691e-26
5.4527e-18
-3.74392e-26
1.28455e-26
5.4527e-18
-4.89039e-26
1.19693e-26
5.4527e-18
-3.66775e-26
1.37091e-26
5.4527e-18
-3.99777e-26
1.10843e-26
5.4527e-18
-2.39908e-26
1.10225e-26
5.4527e-18
-3.41975e-26
8.75799e-27
5.4527e-18
-2.43559e-26
1.03335e-26
5.4527e-18
-3.39539e-26
8.9001e-27
5.4527e-18
-1.20582e-26
8.91014e-27
5.4527e-18
-1.62011e-26
4.96512e-27
5.4527e-18
9.1496e-28
4.96486e-27
5.4527e-18
-1.28168e-26
2.05357e-27
5.4527e-18
3.17385e-27
4.09282e-27
5.4527e-18
-8.53392e-27
1.48987e-27
5.4527e-18
-3.1455e-28
4.26793e-27
5.4527e-18
-2.10889e-26
3.91469e-27
5.4527e-18
-3.04094e-27
6.23101e-27
5.4527e-18
-1.496e-26
3.95995e-27
5.4527e-18
6.55189e-27
3.70466e-27
5.4527e-18
-1.04954e-26
1.5877e-27
5.4527e-18
3.86575e-27
2.93607e-27
5.4527e-18
-2.25944e-26
3.90592e-27
5.4527e-18
1.79305e-27
4.74645e-27
5.4527e-18
-1.46689e-26
3.19842e-27
5.4527e-18
1.11165e-26
2.55613e-27
5.4527e-18
-8.18756e-27
3.58526e-28
5.4527e-18
1.10484e-26
1.43775e-27
5.4527e-18
-1.00612e-26
-1.53746e-28
5.4527e-18
5.7506e-27
2.31507e-27
5.4527e-18
-1.28892e-26
6.75647e-28
5.4527e-18
2.50883e-27
3.13946e-27
5.4527e-18
-1.52921e-26
1.03495e-27
5.4527e-18
-3.40886e-28
3.7358e-27
5.4527e-18
-1.77589e-26
1.39989e-27
5.4527e-18
-3.60059e-27
4.34923e-27
5.4527e-18
-1.97467e-26
1.88846e-27
5.4527e-18