/*--------------------------------*- C++ -*----------------------------------*\
| =========                 |                                                 |
| \\      /  F ield         | OpenFOAM: The Open Source CFD Toolbox           |
|  \\    /   O peration     | Version:  2412                                  |
|   \\  /    A nd           | Website:  www.openfoam.com                      |
|    \\/     M anipulation  |                                                 |
\*---------------------------------------------------------------------------*/
FoamFile
{
    version     2.0;
    format      ascii;
    arch        "LSB;label=32;scalar=64";
    class       surfaceScalarField;
    location    "250";
    object      phi;
}
// * * * * * * * * * * * * * * * * * * * * * * * * * * * * * * * * * * * * * //

dimensions      [0 3 -1 0 0 0 0];

oriented        oriented;

internalField   nonuniform List<scalar> 
116495
(
1.39796e-17
1.51131e-25
5.94462e-25
1.39796e-17
8.8338e-26
-5.57453e-25
1.39796e-17
2.30934e-25
6.22952e-25
1.39796e-17
2.58974e-25
-3.71677e-25
1.39796e-17
3.23058e-25
1.08287e-25
1.39796e-17
3.75406e-25
4.49068e-26
1.39796e-17
4.13773e-25
4.18897e-26
1.39796e-17
4.42434e-25
7.32129e-26
1.39796e-17
4.59569e-25
6.29194e-26
1.39796e-17
4.62313e-25
6.66329e-26
1.39796e-17
4.48266e-25
6.09253e-26
1.39796e-17
4.16399e-25
5.05272e-26
1.39796e-17
3.68304e-25
4.31275e-26
1.39796e-17
3.06071e-25
3.78551e-26
1.39796e-17
2.31467e-25
3.21134e-26
1.39796e-17
1.50139e-25
2.78702e-26
1.39796e-17
6.45255e-26
2.1712e-26
1.39796e-17
-1.6993e-26
1.78593e-26
1.39796e-17
-9.06326e-26
1.6503e-26
1.39796e-17
-1.50529e-25
1.89607e-26
1.39796e-17
-1.975e-25
2.11384e-26
1.39796e-17
-2.30237e-25
2.19466e-26
1.39796e-17
-2.5167e-25
1.82126e-26
1.39796e-17
-2.60969e-25
1.21795e-26
1.39796e-17
-2.61702e-25
4.15248e-27
1.39796e-17
-2.55569e-25
-2.40778e-27
1.39796e-17
-2.44698e-25
-6.99429e-27
1.39796e-17
-2.30534e-25
-7.06447e-27
1.39796e-17
-2.15291e-25
-5.31537e-27
1.39796e-17
-2.00221e-25
-9.20065e-28
1.39796e-17
-1.86882e-25
2.71951e-27
1.39796e-17
-1.75088e-25
7.35773e-27
1.39796e-17
-1.66046e-25
1.03789e-26
1.39796e-17
-1.58567e-25
1.43797e-26
1.39796e-17
-1.53288e-25
1.68496e-26
1.39796e-17
-1.48562e-25
2.01603e-26
1.39796e-17
-1.45008e-25
2.22427e-26
1.39796e-17
-1.41627e-25
2.59863e-26
1.39796e-17
-1.38695e-25
2.96961e-26
1.39796e-17
-1.35794e-25
3.52427e-26
1.39796e-17
-1.33605e-25
4.08567e-26
1.39796e-17
-1.31715e-25
4.69431e-26
1.39796e-17
-1.31755e-25
5.12665e-26
1.39796e-17
-1.34204e-25
5.4461e-26
1.39796e-17
-1.40791e-25
5.38734e-26
1.39796e-17
-1.51882e-25
5.04361e-26
1.39796e-17
-1.68868e-25
3.86375e-26
1.39796e-17
-1.89058e-25
2.0604e-26
1.39796e-17
-2.15039e-25
-7.30121e-27
1.39796e-17
-2.41542e-25
-3.84196e-26
1.39796e-17
-2.67162e-25
-7.41486e-26
1.39796e-17
-2.87422e-25
-1.05107e-25
1.39796e-17
-2.98955e-25
-1.2903e-25
1.39796e-17
-2.91003e-25
-1.34881e-25
1.39796e-17
-2.58715e-25
-1.20924e-25
1.39796e-17
-2.00615e-25
-8.61623e-26
1.39796e-17
-1.16612e-25
-3.59488e-26
1.39796e-17
-2.06236e-27
2.377e-26
1.39796e-17
1.52394e-25
9.80708e-26
1.39796e-17
3.3556e-25
1.79087e-25
1.39796e-17
5.35954e-25
2.62684e-25
1.39796e-17
7.26334e-25
3.12763e-25
1.39796e-17
8.78388e-25
3.17815e-25
1.39796e-17
9.41584e-25
2.71666e-25
1.39796e-17
9.09583e-25
1.92721e-25
1.39796e-17
7.56216e-25
9.00988e-26
1.39796e-17
4.62758e-25
-2.73443e-26
1.39796e-17
3.78153e-26
-1.34036e-25
1.39796e-17
-5.00661e-25
-1.96105e-25
1.39796e-17
-1.09521e-24
-1.77576e-25
1.39796e-17
-1.71936e-24
-8.77077e-26
1.39796e-17
-2.31356e-24
6.74037e-26
1.39796e-17
-2.87069e-24
2.3724e-25
1.39796e-17
-3.31451e-24
4.11657e-25
1.39796e-17
-3.64095e-24
5.39545e-25
1.39796e-17
-3.80535e-24
6.27976e-25
1.39796e-17
-3.84712e-24
6.55299e-25
1.39796e-17
-3.76566e-24
6.51196e-25
1.39796e-17
-3.6154e-24
6.20225e-25
1.39796e-17
-3.42951e-24
5.93118e-25
1.39796e-17
-3.25084e-24
5.82723e-25
1.39796e-17
-3.11929e-24
6.03413e-25
1.39796e-17
-3.04771e-24
6.49717e-25
1.39796e-17
-3.08849e-24
6.81838e-25
1.39796e-17
-3.28832e-24
6.38387e-25
1.39796e-17
-3.67333e-24
5.04084e-25
1.39796e-17
-4.29052e-24
2.91088e-25
1.39796e-17
-5.17135e-24
5.11618e-26
1.39796e-17
-6.34871e-24
-2.47779e-25
1.39796e-17
-7.71097e-24
-5.3556e-25
1.39796e-17
-9.25329e-24
-8.21273e-25
1.39796e-17
-1.06759e-23
-8.73494e-25
1.39796e-17
-1.18337e-23
-7.00411e-25
1.39796e-17
-1.24451e-23
-2.87164e-25
1.39796e-17
-1.24544e-23
1.95039e-25
1.39796e-17
-1.16965e-23
7.5315e-25
1.39796e-17
-1.01886e-23
1.18036e-24
1.39796e-17
-8.1929e-24
5.76952e-25
1.39796e-17
-6.0882e-24
3.6243e-25
-4.39143e-24
9.39039e-25
1.95445e-17
4.38685e-26
1.27207e-24
1.95445e-17
1.81695e-25
-1.22548e-24
1.95445e-17
1.72148e-25
1.00877e-24
1.95445e-17
2.38925e-25
-4.40331e-25
1.95445e-17
2.82833e-25
1.3322e-25
1.95445e-17
3.26941e-25
1.11718e-25
1.95445e-17
3.63472e-25
9.65027e-26
1.95445e-17
3.92578e-25
1.37745e-25
1.95445e-17
4.1174e-25
1.24182e-25
1.95445e-17
4.17893e-25
1.2592e-25
1.95445e-17
4.08109e-25
1.17174e-25
1.95445e-17
3.81804e-25
1.02137e-25
1.95445e-17
3.38549e-25
8.94502e-26
1.95445e-17
2.80307e-25
7.75784e-26
1.95445e-17
2.09586e-25
6.53825e-26
1.95445e-17
1.30021e-25
5.25009e-26
1.95445e-17
4.73607e-26
3.84475e-26
1.95445e-17
-3.24152e-26
2.62352e-26
1.95445e-17
-1.02999e-25
1.88997e-26
1.95445e-17
-1.62159e-25
1.38486e-26
1.95445e-17
-2.05829e-25
1.04297e-26
1.95445e-17
-2.35616e-25
4.83359e-27
1.95445e-17
-2.5132e-25
-2.90403e-27
1.95445e-17
-2.55358e-25
-1.31361e-26
1.95445e-17
-2.50214e-25
-2.31767e-26
1.95445e-17
-2.39197e-25
-3.13949e-26
1.95445e-17
-2.24646e-25
-3.5783e-26
1.95445e-17
-2.08146e-25
-3.58263e-26
1.95445e-17
-1.91524e-25
-3.21523e-26
1.95445e-17
-1.76082e-25
-2.64594e-26
1.95445e-17
-1.62912e-25
-2.01959e-26
1.95445e-17
-1.52955e-25
-1.44367e-26
1.95445e-17
-1.4578e-25
-9.29241e-27
1.95445e-17
-1.40889e-25
-4.85545e-27
1.95445e-17
-1.37512e-25
-6.92358e-28
1.95445e-17
-1.35486e-25
2.7788e-27
1.95445e-17
-1.33969e-25
6.38629e-27
1.95445e-17
-1.32465e-25
1.06376e-26
1.95445e-17
-1.30558e-25
1.60204e-26
1.95445e-17
-1.28154e-25
2.22629e-26
1.95445e-17
-1.24901e-25
2.91679e-26
1.95445e-17
-1.21673e-25
3.55615e-26
1.95445e-17
-1.19087e-25
4.0345e-26
1.95445e-17
-1.18106e-25
4.24029e-26
1.95445e-17
-1.19723e-25
4.10456e-26
1.95445e-17
-1.25398e-25
3.39466e-26
1.95445e-17
-1.3632e-25
1.86721e-26
1.95445e-17
-1.53097e-25
-6.59384e-27
1.95445e-17
-1.74829e-25
-4.05912e-26
1.95445e-17
-2.00119e-25
-8.13198e-26
1.95445e-17
-2.28788e-25
-1.23886e-25
1.95445e-17
-2.57197e-25
-1.62092e-25
1.95445e-17
-2.79419e-25
-1.87186e-25
1.95445e-17
-2.90143e-25
-1.91742e-25
1.95445e-17
-2.83487e-25
-1.70129e-25
1.95445e-17
-2.55442e-25
-1.21535e-25
1.95445e-17
-1.98227e-25
-4.73193e-26
1.95445e-17
-1.0343e-25
4.27168e-26
1.95445e-17
2.89968e-26
1.43862e-25
1.95445e-17
2.00302e-25
2.58555e-25
1.95445e-17
4.04936e-25
3.66453e-25
1.95445e-17
6.20711e-25
4.38267e-25
1.95445e-17
8.04792e-25
4.45765e-25
1.95445e-17
9.2278e-25
3.9295e-25
1.95445e-17
9.47253e-25
2.87787e-25
1.95445e-17
8.50045e-25
1.41209e-25
1.95445e-17
6.08511e-25
-3.3448e-26
1.95445e-17
2.25873e-25
-2.0835e-25
1.95445e-17
-2.65358e-25
-3.20556e-25
1.95445e-17
-8.51325e-25
-3.56194e-25
1.95445e-17
-1.47436e-24
-3.16954e-25
1.95445e-17
-2.1016e-24
-2.18429e-25
1.95445e-17
-2.67019e-24
-7.79631e-26
1.95445e-17
-3.14587e-24
5.73705e-26
1.95445e-17
-3.47654e-24
1.7118e-25
1.95445e-17
-3.64919e-24
2.30079e-25
1.95445e-17
-3.66824e-24
2.44533e-25
1.95445e-17
-3.5679e-24
2.18225e-25
1.95445e-17
-3.36967e-24
1.86422e-25
1.95445e-17
-3.12971e-24
1.66524e-25
1.95445e-17
-2.87981e-24
1.82284e-25
1.95445e-17
-2.66043e-24
2.31028e-25
1.95445e-17
-2.49695e-24
2.89724e-25
1.95445e-17
-2.42189e-24
3.02721e-25
1.95445e-17
-2.47275e-24
2.11194e-25
1.95445e-17
-2.70611e-24
-1.85077e-26
1.95445e-17
-3.16729e-24
-3.58163e-25
1.95445e-17
-3.90971e-24
-7.75212e-25
1.95445e-17
-4.94854e-24
-1.24324e-24
1.95445e-17
-6.31534e-24
-1.75039e-24
1.95445e-17
-7.89449e-24
-2.17116e-24
1.95445e-17
-9.5077e-24
-2.35911e-24
1.95445e-17
-1.0888e-23
-2.19406e-24
1.95445e-17
-1.18601e-23
-1.77011e-24
1.95445e-17
-1.21798e-23
-1.13545e-24
1.95445e-17
-1.16997e-23
-3.38804e-25
1.95446e-17
-1.03733e-23
3.71846e-25
1.95446e-17
-8.39559e-24
-1.1419e-25
1.95446e-17
-6.05505e-24
-1.91196e-26
-4.20579e-24
9.26611e-25
1.39796e-17
5.19191e-25
1.39796e-17
-4.62988e-25
1.39796e-17
6.51783e-25
1.39796e-17
-2.90767e-25
1.39796e-17
1.84274e-25
1.39796e-17
1.28212e-25
1.39796e-17
1.21369e-25
1.39796e-17
1.43924e-25
1.39796e-17
1.28267e-25
1.39796e-17
1.25797e-25
1.39796e-17
1.14671e-25
1.39796e-17
9.94724e-26
1.39796e-17
8.68242e-26
1.39796e-17
7.41076e-26
1.39796e-17
6.10319e-26
1.39796e-17
4.75762e-26
1.39796e-17
3.37173e-26
1.39796e-17
2.13059e-26
1.39796e-17
1.16329e-26
1.39796e-17
4.99537e-27
1.39796e-17
-5.54721e-28
1.39796e-17
-6.83108e-27
1.39796e-17
-1.48758e-26
1.39796e-17
-2.41052e-26
1.39796e-17
-3.30835e-26
1.39796e-17
-3.99075e-26
1.39796e-17
-4.32613e-26
1.39796e-17
-4.28797e-26
1.39796e-17
-3.94827e-26
1.39796e-17
-3.44189e-26
1.39796e-17
-2.87628e-26
1.39796e-17
-2.32555e-26
1.39796e-17
-1.82805e-26
1.39796e-17
-1.39352e-26
1.39796e-17
-1.01982e-26
1.39796e-17
-6.8147e-27
1.39796e-17
-3.34814e-27
1.39796e-17
5.67148e-28
1.39796e-17
5.05562e-27
1.39796e-17
1.01813e-26
1.39796e-17
1.55738e-26
1.39796e-17
2.04784e-26
1.39796e-17
2.39962e-26
1.39796e-17
2.5256e-26
1.39796e-17
2.31181e-26
1.39796e-17
1.56393e-26
1.39796e-17
1.04087e-27
1.39796e-17
-2.15768e-26
1.39796e-17
-5.20459e-26
1.39796e-17
-8.79242e-26
1.39796e-17
-1.24826e-25
1.39796e-17
-1.57386e-25
1.39796e-17
-1.78773e-25
1.39796e-17
-1.82068e-25
1.39796e-17
-1.62116e-25
1.39796e-17
-1.16405e-25
1.39796e-17
-4.49862e-26
1.39796e-17
3.96106e-26
1.39796e-17
1.32956e-25
1.39796e-17
2.33869e-25
1.39796e-17
3.28214e-25
1.39796e-17
3.85194e-25
1.39796e-17
3.89656e-25
1.39796e-17
3.38628e-25
1.39796e-17
2.40387e-25
1.39796e-17
1.0412e-25
1.39796e-17
-5.4365e-26
1.39796e-17
-2.1084e-25
1.39796e-17
-3.3017e-25
1.39796e-17
-3.85516e-25
1.39796e-17
-3.76408e-25
1.39796e-17
-3.07391e-25
1.39796e-17
-2.08528e-25
1.39796e-17
-1.07304e-25
1.39796e-17
-3.21895e-26
1.39796e-17
5.85728e-27
1.39796e-17
2.47332e-27
1.39796e-17
-2.66937e-26
1.39796e-17
-6.14847e-26
1.39796e-17
-7.73287e-26
1.39796e-17
-6.04576e-26
1.39796e-17
-1.27272e-26
1.39796e-17
3.87426e-26
1.39796e-17
4.47506e-26
1.39796e-17
-5.08939e-26
1.39796e-17
-2.70671e-25
1.39796e-17
-5.97804e-25
1.39796e-17
-1.00165e-24
1.39796e-17
-1.46211e-24
1.39796e-17
-1.93005e-24
1.39796e-17
-2.30996e-24
1.39796e-17
-2.46762e-24
1.39796e-17
-2.35322e-24
1.39796e-17
-1.9678e-24
1.39796e-17
-1.39363e-24
1.39796e-17
-6.62886e-25
1.39796e-17
-6.31036e-27
1.39796e-17
-2.32444e-25
1.39796e-17
-3.82128e-26
8.30312e-25
1.47444e-17
3.14596e-25
6.11231e-25
1.47444e-17
2.28053e-25
-5.3913e-25
1.47444e-17
4.72553e-25
6.17631e-25
1.47444e-17
4.87935e-25
-3.58687e-25
1.47444e-17
6.26745e-25
1.02011e-25
1.47444e-17
7.02431e-25
3.41853e-26
1.47444e-17
7.64619e-25
2.65797e-26
1.47444e-17
8.09891e-25
5.57704e-26
1.47444e-17
8.33849e-25
4.64658e-26
1.47444e-17
8.39136e-25
5.363e-26
1.47444e-17
8.21873e-25
5.09069e-26
1.47444e-17
7.80717e-25
4.20929e-26
1.47444e-17
7.16023e-25
3.34665e-26
1.47444e-17
6.2776e-25
2.33335e-26
1.47444e-17
5.20677e-25
1.29189e-26
1.47444e-17
3.98047e-25
2.38312e-27
1.47444e-17
2.6739e-25
-6.8157e-27
1.47444e-17
1.3241e-25
-1.4794e-26
1.47444e-17
9.71233e-28
-2.05154e-26
1.47444e-17
-1.1977e-25
-2.22862e-26
1.47444e-17
-2.22718e-25
-2.08512e-26
1.47444e-17
-3.03607e-25
-1.77147e-26
1.47444e-17
-3.60474e-25
-1.38266e-26
1.47444e-17
-3.94402e-25
-9.67496e-27
1.47444e-17
-4.08313e-25
-5.05119e-27
1.47444e-17
-4.069e-25
-3.71753e-28
1.47444e-17
-3.95443e-25
5.06299e-27
1.47444e-17
-3.7861e-25
1.01669e-26
1.47444e-17
-3.59869e-25
1.56555e-26
1.47444e-17
-3.41251e-25
2.03147e-26
1.47444e-17
-3.24221e-25
2.49904e-26
1.47444e-17
-3.09892e-25
2.82923e-26
1.47444e-17
-2.98035e-25
3.12775e-26
1.47444e-17
-2.88776e-25
3.29869e-26
1.47444e-17
-2.80995e-25
3.46482e-26
1.47444e-17
-2.74319e-25
3.55395e-26
1.47444e-17
-2.67422e-25
3.72999e-26
1.47444e-17
-2.60023e-25
3.91933e-26
1.47444e-17
-2.51764e-25
4.25921e-26
1.47444e-17
-2.42913e-25
4.68031e-26
1.47444e-17
-2.34337e-25
5.27217e-26
1.47444e-17
-2.27539e-25
5.92962e-26
1.47444e-17
-2.24086e-25
6.59892e-26
1.47444e-17
-2.25479e-25
7.07131e-26
1.47444e-17
-2.33357e-25
7.25322e-26
1.47444e-17
-2.49235e-25
6.86765e-26
1.47444e-17
-2.72989e-25
5.84193e-26
1.47444e-17
-3.05292e-25
3.94598e-26
1.47444e-17
-3.42219e-25
1.33087e-26
1.47444e-17
-3.8353e-25
-1.97375e-26
1.47444e-17
-4.22124e-25
-5.4792e-26
1.47444e-17
-4.50725e-25
-8.92823e-26
1.47444e-17
-4.56555e-25
-1.16678e-25
1.47444e-17
-4.36129e-25
-1.32854e-25
1.47444e-17
-3.78671e-25
-1.31865e-25
1.47444e-17
-2.72968e-25
-1.12766e-25
1.47444e-17
-1.10802e-25
-7.58019e-26
1.47444e-17
1.08059e-25
-2.31937e-26
1.47444e-17
3.73534e-25
4.58653e-26
1.47444e-17
6.80036e-25
1.29986e-25
1.47444e-17
1.00592e-24
2.19883e-25
1.47444e-17
1.31447e-24
3.0173e-25
1.47444e-17
1.56503e-24
3.56019e-25
1.47444e-17
1.71776e-24
3.72196e-25
1.47444e-17
1.71835e-24
3.50094e-25
1.47444e-17
1.51679e-24
2.9225e-25
1.47444e-17
1.08657e-24
2.07016e-25
1.47444e-17
4.21124e-25
1.04671e-25
1.47444e-17
-4.70603e-25
5.08567e-27
1.47444e-17
-1.55377e-24
-7.16149e-26
1.47444e-17
-2.75556e-24
-1.10352e-25
1.47444e-17
-3.98705e-24
-1.0976e-25
1.47444e-17
-5.15563e-24
-7.49957e-26
1.47444e-17
-6.1824e-24
-1.15724e-26
1.47444e-17
-6.98876e-24
7.47435e-26
1.47444e-17
-7.5297e-24
1.73324e-25
1.47444e-17
-7.78616e-24
2.84826e-25
1.47444e-17
-7.78214e-24
4.05654e-25
1.47444e-17
-7.56028e-24
5.39969e-25
1.47444e-17
-7.19714e-24
6.86491e-25
1.47444e-17
-6.79218e-24
8.42886e-25
1.47444e-17
-6.45797e-24
9.98531e-25
1.47444e-17
-6.31285e-24
1.12457e-24
1.47444e-17
-6.44419e-24
1.19832e-24
1.47444e-17
-6.92726e-24
1.19557e-24
1.47444e-17
-7.81603e-24
1.10927e-24
1.47444e-17
-9.13323e-24
9.5023e-25
1.47444e-17
-1.08645e-23
7.182e-25
1.47444e-17
-1.29263e-23
4.16223e-25
1.47444e-17
-1.52953e-23
4.76282e-26
1.47444e-17
-1.77813e-23
-3.25002e-25
1.47444e-17
-2.0169e-23
-6.11214e-25
1.47444e-17
-2.20794e-23
-7.11821e-25
1.47444e-17
-2.32494e-23
-6.32347e-25
1.47444e-17
-2.33794e-23
-4.60941e-25
1.47444e-17
-2.22606e-23
-2.28529e-25
1.47444e-17
-1.98422e-23
-7.87053e-26
1.47444e-17
-1.63545e-23
-7.6302e-25
1.47444e-17
-1.22455e-23
-8.47119e-25
-8.75329e-24
2.35305e-25
2.4868e-17
3.6792e-25
1.22179e-24
2.4868e-17
3.66965e-25
-1.0848e-24
2.4868e-17
5.91778e-25
1.08725e-24
2.4868e-17
6.50677e-25
-4.4323e-25
2.4868e-17
8.424e-25
1.81359e-25
2.4868e-17
9.43897e-25
9.88391e-26
2.4868e-17
1.02971e-24
8.77074e-26
2.4868e-17
1.09494e-24
1.26308e-25
2.4868e-17
1.13127e-24
1.15427e-25
2.4868e-17
1.14196e-24
1.24886e-25
2.4868e-17
1.12005e-24
1.23009e-25
2.4868e-17
1.06434e-24
1.0976e-25
2.4868e-17
9.7245e-25
9.63109e-26
2.4868e-17
8.48662e-25
8.04878e-26
2.4868e-17
6.94874e-25
6.13028e-26
2.4868e-17
5.22114e-25
4.21864e-26
2.4868e-17
3.35223e-25
2.17121e-26
2.4868e-17
1.45946e-25
3.71564e-27
2.4868e-17
-3.83026e-26
-1.13853e-26
2.4868e-17
-2.03629e-25
-1.937e-26
2.4868e-17
-3.43033e-25
-2.32557e-26
2.4868e-17
-4.49831e-25
-2.44286e-26
2.4868e-17
-5.23189e-25
-2.45854e-26
2.4868e-17
-5.64652e-25
-2.35557e-26
2.4868e-17
-5.79032e-25
-2.25598e-26
2.4868e-17
-5.72828e-25
-1.94244e-26
2.4868e-17
-5.52957e-25
-1.61384e-26
2.4868e-17
-5.2617e-25
-9.86095e-27
2.4868e-17
-4.97105e-25
-4.55984e-27
2.4868e-17
-4.68902e-25
2.50343e-27
2.4868e-17
-4.44072e-25
7.30856e-27
2.4868e-17
-4.22756e-25
1.30859e-26
2.4868e-17
-4.0579e-25
1.59787e-26
2.4868e-17
-3.92023e-25
1.97147e-26
2.4868e-17
-3.81572e-25
2.07639e-26
2.4868e-17
-3.72386e-25
2.34513e-26
2.4868e-17
-3.63968e-25
2.47424e-26
2.4868e-17
-3.54547e-25
2.89306e-26
2.4868e-17
-3.44221e-25
3.31083e-26
2.4868e-17
-3.33061e-25
4.06269e-26
2.4868e-17
-3.22506e-25
4.89231e-26
2.4868e-17
-3.14968e-25
5.94782e-26
2.4868e-17
-3.1199e-25
6.86898e-26
2.4868e-17
-3.15068e-25
7.66533e-26
2.4868e-17
-3.26767e-25
7.88061e-26
2.4868e-17
-3.48363e-25
7.56396e-26
2.4868e-17
-3.81509e-25
6.02637e-26
2.4868e-17
-4.25145e-25
3.5146e-26
2.4868e-17
-4.79434e-25
-3.55213e-27
2.4868e-17
-5.35728e-25
-4.79029e-26
2.4868e-17
-5.90236e-25
-9.93111e-26
2.4868e-17
-6.29687e-25
-1.47369e-25
2.4868e-17
-6.48996e-25
-1.89165e-25
2.4868e-17
-6.30145e-25
-2.11488e-25
2.4868e-17
-5.60504e-25
-2.10834e-25
2.4868e-17
-4.21403e-25
-1.81371e-25
2.4868e-17
-2.03118e-25
-1.2366e-25
2.4868e-17
9.56029e-26
-4.28644e-26
2.4868e-17
4.72043e-25
6.4186e-26
2.4868e-17
8.94083e-25
1.91312e-25
2.4868e-17
1.34956e-24
3.29825e-25
2.4868e-17
1.78511e-24
4.53216e-25
2.4868e-17
2.16538e-24
5.3917e-25
2.4868e-17
2.39617e-24
5.68645e-25
2.4868e-17
2.40377e-24
5.37189e-25
2.4868e-17
2.12862e-24
4.51365e-25
2.4868e-17
1.53503e-24
3.13482e-25
2.4868e-17
6.07356e-25
1.40185e-25
2.4868e-17
-6.50216e-25
-2.94382e-26
2.4868e-17
-2.16763e-24
-1.72155e-25
2.4868e-17
-3.84961e-24
-2.70263e-25
2.4868e-17
-5.56673e-24
-3.20168e-25
2.4868e-17
-7.19772e-24
-3.27157e-25
2.4868e-17
-8.60954e-24
-2.9546e-25
2.4868e-17
-9.70131e-24
-2.37462e-25
2.4868e-17
-1.04023e-23
-1.56762e-25
2.4868e-17
-1.07063e-23
-5.75133e-26
2.4868e-17
-1.06389e-23
6.46129e-26
2.4868e-17
-1.02774e-23
2.1028e-25
2.4868e-17
-9.72715e-24
3.79848e-25
2.4868e-17
-9.1286e-24
5.67029e-25
2.4868e-17
-8.65261e-24
7.52895e-25
2.4868e-17
-8.42925e-24
9.15514e-25
2.4868e-17
-8.56036e-24
1.01276e-24
2.4868e-17
-9.15778e-24
1.0022e-24
2.4868e-17
-1.03131e-23
8.60028e-25
2.4868e-17
-1.20901e-23
5.81557e-25
2.4868e-17
-1.44598e-23
1.84323e-25
2.4868e-17
-1.73934e-23
-3.53297e-25
2.4868e-17
-2.06797e-23
-9.73071e-25
2.4868e-17
-2.42068e-23
-1.61875e-24
2.4868e-17
-2.75316e-23
-2.09531e-24
2.4868e-17
-3.03312e-23
-2.33083e-24
2.4868e-17
-3.20988e-23
-2.30402e-24
2.4868e-17
-3.24284e-23
-2.08123e-24
2.4868e-17
-3.09786e-23
-1.66499e-24
2.4868e-17
-2.75654e-23
-1.19104e-24
2.4868e-17
-2.25367e-23
-1.73501e-24
2.4868e-17
-1.66157e-23
-1.44176e-24
-1.17665e-23
-3.89628e-26
3.03692e-17
4.33861e-25
1.05351e-24
3.03692e-17
3.51397e-25
-1.01502e-24
3.03692e-17
6.6703e-25
1.11195e-24
3.03692e-17
6.70369e-25
-5.45047e-25
3.03692e-17
9.23204e-25
2.15329e-25
3.03692e-17
1.04214e-24
9.3757e-26
3.03692e-17
1.14435e-24
8.2779e-26
3.03692e-17
1.22561e-24
1.33206e-25
3.03692e-17
1.27161e-24
1.14884e-25
3.03692e-17
1.28445e-24
1.27075e-25
3.03692e-17
1.25766e-24
1.24262e-25
3.03692e-17
1.18728e-24
1.10552e-25
3.03692e-17
1.07675e-24
9.81503e-26
3.03692e-17
9.25666e-25
8.2399e-26
3.03692e-17
7.45128e-25
6.66964e-26
3.03692e-17
5.39368e-25
4.79688e-26
3.03692e-17
3.23176e-25
3.03684e-26
3.03692e-17
1.05125e-25
1.35833e-26
3.03692e-17
-1.00277e-25
2.36133e-27
3.03692e-17
-2.83487e-25
-3.36337e-27
3.03692e-17
-4.33978e-25
-4.69182e-27
3.03692e-17
-5.47459e-25
-5.00912e-27
3.03692e-17
-6.22588e-25
-5.23949e-27
3.03692e-17
-6.63589e-25
-6.87124e-27
3.03692e-17
-6.75304e-25
-7.89356e-27
3.03692e-17
-6.65057e-25
-9.23997e-27
3.03692e-17
-6.4022e-25
-7.20176e-27
3.03692e-17
-6.07449e-25
-4.51629e-27
3.03692e-17
-5.71678e-25
1.72958e-27
3.03692e-17
-5.37429e-25
6.51312e-27
3.03692e-17
-5.06211e-25
1.3166e-26
3.03692e-17
-4.79728e-25
1.68518e-26
3.03692e-17
-4.57418e-25
2.17478e-26
3.03692e-17
-4.40366e-25
2.34036e-26
3.03692e-17
-4.26354e-25
2.6617e-26
3.03692e-17
-4.15397e-25
2.75725e-26
3.03692e-17
-4.04904e-25
3.10541e-26
3.03692e-17
-3.9464e-25
3.39002e-26
3.03692e-17
-3.83468e-25
4.04233e-26
3.03692e-17
-3.72403e-25
4.77397e-26
3.03692e-17
-3.62234e-25
5.87149e-26
3.03692e-17
-3.55939e-25
7.00629e-26
3.03692e-17
-3.55251e-25
8.1968e-26
3.03692e-17
-3.62715e-25
9.0041e-26
3.03692e-17
-3.8015e-25
9.50618e-26
3.03692e-17
-4.11173e-25
9.0024e-26
3.03692e-17
-4.53617e-25
7.61421e-26
3.03692e-17
-5.1e-25
4.53973e-26
3.03692e-17
-5.73793e-25
5.08986e-27
3.03692e-17
-6.4307e-25
-4.83342e-26
3.03692e-17
-7.02964e-25
-1.04268e-25
3.03692e-17
-7.49618e-25
-1.6332e-25
3.03692e-17
-7.68074e-25
-2.09596e-25
3.03692e-17
-7.42709e-25
-2.38199e-25
3.03692e-17
-6.5324e-25
-2.36965e-25
3.03692e-17
-4.87119e-25
-2.07136e-25
3.03692e-17
-2.36499e-25
-1.47531e-25
3.03692e-17
1.11222e-25
-5.87148e-26
3.03692e-17
5.40046e-25
5.60041e-26
3.03692e-17
1.03391e-24
1.99703e-25
3.03692e-17
1.54151e-24
3.48797e-25
3.03692e-17
2.04746e-24
4.81857e-25
3.03692e-17
2.45918e-24
5.63629e-25
3.03692e-17
2.69102e-24
5.84331e-25
3.03692e-17
2.65306e-24
5.44124e-25
3.03692e-17
2.29523e-24
4.44636e-25
3.03692e-17
1.58614e-24
2.99793e-25
3.03692e-17
4.97623e-25
1.26973e-25
3.03692e-17
-9.51421e-25
-2.95467e-26
3.03692e-17
-2.6641e-24
-1.3697e-25
3.03692e-17
-4.53111e-24
-1.80697e-25
3.03692e-17
-6.42178e-24
-1.68502e-25
3.03692e-17
-8.18071e-24
-1.09142e-25
3.03692e-17
-9.68857e-24
-2.67214e-26
3.03692e-17
-1.08131e-23
6.90647e-26
3.03692e-17
-1.15121e-23
1.60424e-25
3.03692e-17
-1.17618e-23
2.53837e-25
3.03692e-17
-1.16223e-23
3.50249e-25
3.03692e-17
-1.11736e-23
4.6422e-25
3.03692e-17
-1.05473e-23
6.00779e-25
3.03692e-17
-9.90267e-24
7.60122e-25
3.03692e-17
-9.40265e-24
9.39026e-25
3.03692e-17
-9.20776e-24
1.1058e-24
3.03692e-17
-9.39976e-24
1.22434e-24
3.03692e-17
-1.00984e-23
1.23534e-24
3.03692e-17
-1.14097e-23
1.09895e-24
3.03692e-17
-1.33899e-23
8.30487e-25
3.03692e-17
-1.60958e-23
4.11328e-25
3.03692e-17
-1.93874e-23
-1.13418e-25
3.03692e-17
-2.31785e-23
-7.89435e-25
3.03692e-17
-2.71472e-23
-1.42694e-24
3.03692e-17
-3.09341e-23
-1.91824e-24
3.03692e-17
-3.39899e-23
-2.09013e-24
3.03692e-17
-3.5879e-23
-1.98135e-24
3.03692e-17
-3.6127e-23
-1.67779e-24
3.03692e-17
-3.43366e-23
-1.14771e-24
3.03692e-17
-3.03956e-23
-6.25433e-25
3.03692e-17
-2.46861e-23
-1.25274e-24
3.03693e-17
-1.81191e-23
-9.67994e-25
-1.27913e-23
1.12759e-25
3.69252e-17
4.61041e-25
1.13309e-24
3.69252e-17
-1.03378e-25
-9.00004e-25
3.69252e-17
9.50787e-25
1.09698e-24
3.69252e-17
4.73965e-25
-6.12426e-25
3.69252e-17
9.2278e-25
1.98764e-25
3.69252e-17
1.04921e-24
4.474e-26
3.69252e-17
1.16661e-24
3.59212e-26
3.69252e-17
1.27505e-24
8.29282e-26
3.69252e-17
1.32455e-24
6.09395e-26
3.69252e-17
1.34257e-24
7.24618e-26
3.69252e-17
1.31173e-24
7.13825e-26
3.69252e-17
1.23065e-24
6.32678e-26
3.69252e-17
1.10366e-24
5.77314e-26
3.69252e-17
9.36651e-25
5.33454e-26
3.69252e-17
7.34316e-25
4.71151e-26
3.69252e-17
5.1025e-25
4.11533e-26
3.69252e-17
2.73775e-25
3.31055e-26
3.69252e-17
4.18953e-26
2.70755e-26
3.69252e-17
-1.73567e-25
2.46586e-26
3.69252e-17
-3.60323e-25
2.77389e-26
3.69252e-17
-5.12017e-25
3.2739e-26
3.69252e-17
-6.24388e-25
3.69657e-26
3.69252e-17
-6.98475e-25
3.77585e-26
3.69252e-17
-7.36461e-25
3.6305e-26
3.69252e-17
-7.45997e-25
3.2962e-26
3.69252e-17
-7.3327e-25
3.01072e-26
3.69252e-17
-7.07076e-25
2.90818e-26
3.69252e-17
-6.70367e-25
3.11567e-26
3.69252e-17
-6.31054e-25
3.47364e-26
3.69252e-17
-5.9095e-25
3.96409e-26
3.69252e-17
-5.55577e-25
4.36008e-26
3.69252e-17
-5.23587e-25
4.71913e-26
3.69252e-17
-4.99215e-25
4.88142e-26
3.69252e-17
-4.78533e-25
5.02753e-26
3.69252e-17
-4.63444e-25
5.06178e-26
3.69252e-17
-4.4986e-25
5.15139e-26
3.69252e-17
-4.39283e-25
5.26836e-26
3.69252e-17
-4.27878e-25
5.61255e-26
3.69252e-17
-4.17826e-25
6.15304e-26
3.69252e-17
-4.06899e-25
7.03756e-26
3.69252e-17
-3.97645e-25
8.2221e-26
3.69252e-17
-3.90349e-25
9.63421e-26
3.69252e-17
-3.90103e-25
1.10444e-25
3.69252e-17
-3.99021e-25
1.23297e-25
3.69252e-17
-4.21426e-25
1.31271e-25
3.69252e-17
-4.5617e-25
1.32111e-25
3.69252e-17
-5.07841e-25
1.19713e-25
3.69252e-17
-5.70312e-25
9.35304e-26
3.69252e-17
-6.4567e-25
5.04039e-26
3.69252e-17
-7.22491e-25
-4.55405e-27
3.69252e-17
-7.94904e-25
-7.04037e-26
3.69252e-17
-8.45562e-25
-1.37638e-25
3.69252e-17
-8.66162e-25
-1.9916e-25
3.69252e-17
-8.33825e-25
-2.41097e-25
3.69252e-17
-7.33296e-25
-2.56104e-25
3.69252e-17
-5.51414e-25
-2.4039e-25
3.69252e-17
-2.84196e-25
-1.94757e-25
3.69252e-17
7.47559e-26
-1.21521e-25
3.69252e-17
5.33758e-25
-1.29151e-26
3.69252e-17
1.06504e-24
1.22888e-25
3.69252e-17
1.62864e-24
2.76559e-25
3.69252e-17
2.15707e-24
4.0651e-25
3.69252e-17
2.56631e-24
4.92173e-25
3.69252e-17
2.76378e-24
5.20964e-25
3.69252e-17
2.67461e-24
4.99276e-25
3.69252e-17
2.24306e-24
4.32472e-25
3.69252e-17
1.42248e-24
3.27604e-25
3.69252e-17
2.17251e-25
2.15348e-25
3.69252e-17
-1.33266e-24
1.34681e-25
3.69252e-17
-3.1256e-24
1.23548e-25
3.69252e-17
-5.05026e-24
1.8371e-25
3.69252e-17
-6.9526e-24
3.07682e-25
3.69252e-17
-8.71081e-24
4.60396e-25
3.69252e-17
-1.01763e-23
6.22524e-25
3.69252e-17
-1.12691e-23
7.57704e-25
3.69252e-17
-1.19172e-23
8.63333e-25
3.69252e-17
-1.2137e-23
9.32947e-25
3.69252e-17
-1.19663e-23
9.92954e-25
3.69252e-17
-1.15142e-23
1.06161e-24
3.69252e-17
-1.09131e-23
1.16507e-24
3.69252e-17
-1.03031e-23
1.32293e-24
3.69252e-17
-9.82483e-24
1.53168e-24
3.69252e-17
-9.61331e-24
1.77083e-24
3.69252e-17
-9.82108e-24
1.98446e-24
3.69252e-17
-1.05489e-23
2.10241e-24
3.69252e-17
-1.18917e-23
2.08561e-24
3.69252e-17
-1.39445e-23
1.91879e-24
3.69252e-17
-1.67337e-23
1.63415e-24
3.69251e-17
-2.0262e-23
1.18519e-24
3.69251e-17
-2.42973e-23
6.32379e-25
3.69251e-17
-2.8607e-23
2.44949e-26
3.69251e-17
-3.25904e-23
-3.95385e-25
3.69251e-17
-3.57529e-23
-5.55133e-25
3.69252e-17
-3.75745e-23
-4.41668e-25
3.69252e-17
-3.75891e-23
-1.52506e-25
3.69252e-17
-3.54079e-23
2.96305e-25
3.69252e-17
-3.10954e-23
6.4986e-25
3.69252e-17
-2.5519e-23
-2.08125e-25
3.69252e-17
-1.87527e-23
-3.00087e-25
-1.3017e-23
2.13884e-25
5.50163e-17
1.04973e-24
1.98639e-24
5.50163e-17
-2.37648e-25
-1.39967e-24
5.50163e-17
1.0195e-24
1.92845e-24
5.50163e-17
7.49156e-25
-3.57915e-25
5.50163e-17
9.73979e-25
4.31857e-25
5.50163e-17
1.16847e-24
3.3639e-25
5.50163e-17
1.26637e-24
2.43233e-25
5.50163e-17
1.35977e-24
2.74057e-25
5.50163e-17
1.40842e-24
2.39012e-25
5.50163e-17
1.41612e-24
2.33066e-25
5.50163e-17
1.37596e-24
2.22939e-25
5.50163e-17
1.28373e-24
2.03931e-25
5.50163e-17
1.14242e-24
1.87106e-25
5.50163e-17
9.56434e-25
1.66862e-25
5.50163e-17
7.34235e-25
1.42393e-25
5.50163e-17
4.86834e-25
1.13363e-25
5.50163e-17
2.29253e-25
8.08673e-26
5.50163e-17
-2.20893e-26
4.82461e-26
5.50163e-17
-2.51182e-25
2.111e-26
5.50163e-17
-4.45819e-25
2.63972e-27
5.50163e-17
-5.98927e-25
-8.37396e-27
5.50163e-17
-7.09596e-25
-1.48799e-26
5.50163e-17
-7.78203e-25
-1.88985e-26
5.50163e-17
-8.09612e-25
-2.12004e-26
5.50163e-17
-8.10303e-25
-2.10845e-26
5.50163e-17
-7.90116e-25
-1.81453e-26
5.50163e-17
-7.55072e-25
-1.15263e-26
5.50163e-17
-7.13087e-25
-2.63039e-27
5.50163e-17
-6.66888e-25
7.81065e-27
5.50163e-17
-6.2326e-25
1.77857e-26
5.50163e-17
-5.82625e-25
2.63218e-26
5.50163e-17
-5.49595e-25
3.20865e-26
5.50163e-17
-5.22539e-25
3.52872e-26
5.50163e-17
-5.02918e-25
3.60768e-26
5.50163e-17
-4.86994e-25
3.55633e-26
5.50163e-17
-4.75501e-25
3.48257e-26
5.50163e-17
-4.6475e-25
3.56099e-26
5.50163e-17
-4.56169e-25
3.8541e-26
5.50163e-17
-4.46914e-25
4.513e-26
5.50163e-17
-4.38642e-25
5.60176e-26
5.50163e-17
-4.30058e-25
7.1427e-26
5.50163e-17
-4.23119e-25
9.05098e-26
5.50163e-17
-4.19658e-25
1.11778e-25
5.50163e-17
-4.25281e-25
1.32063e-25
5.50163e-17
-4.42039e-25
1.47463e-25
5.50163e-17
-4.75468e-25
1.51295e-25
5.50163e-17
-5.24317e-25
1.38764e-25
5.50163e-17
-5.90222e-25
1.05714e-25
5.50163e-17
-6.67378e-25
5.09323e-26
5.50163e-17
-7.51938e-25
-2.42781e-26
5.50163e-17
-8.31767e-25
-1.15218e-25
5.50163e-17
-8.96836e-25
-2.14078e-25
5.50163e-17
-9.31118e-25
-3.09076e-25
5.50163e-17
-9.18422e-25
-3.84729e-25
5.50163e-17
-8.38303e-25
-4.2547e-25
5.50163e-17
-6.77755e-25
-4.19957e-25
5.50163e-17
-4.25899e-25
-3.64139e-25
5.50163e-17
-7.03529e-26
-2.54678e-25
5.50163e-17
3.97488e-25
-8.62983e-26
5.50163e-17
9.64846e-25
1.36338e-25
5.50163e-17
1.57794e-24
3.90792e-25
5.50163e-17
2.16436e-24
6.37762e-25
5.50163e-17
2.62928e-24
8.41108e-25
5.50163e-17
2.87468e-24
9.75741e-25
5.50163e-17
2.8138e-24
1.02654e-24
5.50163e-17
2.37318e-24
9.8831e-25
5.50163e-17
1.50883e-24
8.65012e-25
5.50162e-17
2.25915e-25
6.77063e-25
5.50162e-17
-1.40731e-24
4.62174e-25
5.50162e-17
-3.30219e-24
2.67693e-25
5.50162e-17
-5.31727e-24
1.19568e-25
5.50162e-17
-7.31061e-24
1.71735e-26
5.50162e-17
-9.13547e-24
-4.31549e-26
5.50162e-17
-1.06521e-23
-7.62797e-26
5.50162e-17
-1.17579e-23
-8.94622e-26
5.50163e-17
-1.23963e-23
-8.19476e-26
5.50163e-17
-1.25777e-23
-3.84541e-26
5.50163e-17
-1.23675e-23
5.95666e-26
5.50163e-17
-1.18662e-23
2.38947e-25
5.50163e-17
-1.12203e-23
5.14537e-25
5.50163e-17
-1.0564e-23
8.90363e-25
5.50163e-17
-1.00125e-23
1.34899e-24
5.50163e-17
-9.69222e-24
1.84448e-24
5.50163e-17
-9.76041e-24
2.27623e-24
5.50163e-17
-1.0342e-23
2.54329e-24
5.50162e-17
-1.15561e-23
2.55909e-24
5.50162e-17
-1.35084e-23
2.28698e-24
5.50162e-17
-1.63072e-23
1.71411e-24
5.50162e-17
-1.99421e-23
8.23116e-25
5.50162e-17
-2.4283e-23
-3.59294e-25
5.50162e-17
-2.89422e-23
-1.69002e-24
5.50162e-17
-3.34193e-23
-2.94249e-24
5.50162e-17
-3.70353e-23
-3.88875e-24
5.50162e-17
-3.92351e-23
-4.45277e-24
5.50163e-17
-3.94331e-23
-4.60281e-24
5.50163e-17
-3.726e-23
-4.29921e-24
5.50163e-17
-3.27442e-23
-3.64633e-24
5.50163e-17
-2.66252e-23
-3.76413e-24
5.50163e-17
-1.99204e-23
-3.08461e-24
-1.49749e-23
-2.47947e-24
6.04466e-17
-4.71301e-25
8.17051e-25
6.04466e-17
1.21201e-24
-3.84722e-25
6.04466e-17
2.31349e-25
1.9952e-24
6.04466e-17
8.56021e-25
-3.76721e-25
6.04466e-17
9.12577e-25
5.6762e-25
6.04466e-17
9.8184e-25
4.80185e-25
6.04466e-17
1.08484e-24
3.88568e-25
6.04466e-17
1.13709e-24
4.2655e-25
6.04466e-17
1.17533e-24
3.96857e-25
6.04466e-17
1.17762e-24
3.92729e-25
6.04466e-17
1.13942e-24
3.78155e-25
6.04466e-17
1.06004e-24
3.51249e-25
6.04466e-17
9.37517e-25
3.20719e-25
6.04466e-17
7.74691e-25
2.81474e-25
6.04466e-17
5.78802e-25
2.33039e-25
6.04466e-17
3.60386e-25
1.7666e-25
6.04466e-17
1.33686e-25
1.15314e-25
6.04466e-17
-8.55981e-26
5.42894e-26
6.04466e-17
-2.82438e-25
9.02841e-28
6.04466e-17
-4.46157e-25
-4.09221e-26
6.04466e-17
-5.70786e-25
-7.09025e-26
6.04466e-17
-6.56333e-25
-9.09711e-26
6.04466e-17
-7.05123e-25
-1.03188e-25
6.04466e-17
-7.21831e-25
-1.08814e-25
6.04466e-17
-7.13452e-25
-1.08366e-25
6.04466e-17
-6.87145e-25
-1.02145e-25
6.04466e-17
-6.50294e-25
-9.04004e-26
6.04466e-17
-6.08361e-25