/*--------------------------------*- C++ -*----------------------------------*\
| =========                 |                                                 |
| \\      /  F ield         | OpenFOAM: The Open Source CFD Toolbox           |
|  \\    /   O peration     | Version:  2412                                  |
|   \\  /    A nd           | Website:  www.openfoam.com                      |
|    \\/     M anipulation  |                                                 |
\*---------------------------------------------------------------------------*/
FoamFile
{
    version     2.0;
    format      ascii;
    arch        "LSB;label=32;scalar=64";
    class       volVectorField;
    location    "250";
    object      U;
}
// * * * * * * * * * * * * * * * * * * * * * * * * * * * * * * * * * * * * * //

dimensions      [0 1 -1 0 0 0 0];

internalField   nonuniform List<vector> 
3700
(
(5.67752e-06 2.85634e-12 2.12643e-11)
(5.67751e-06 -1.31957e-12 -1.20051e-11)
(5.67752e-06 1.66502e-12 4.16298e-12)
(5.67752e-06 3.23159e-13 -2.97924e-12)
(5.67752e-06 5.15175e-13 -3.49975e-13)
(5.67752e-06 4.37314e-13 -8.96708e-14)
(5.67752e-06 2.53397e-13 -6.68409e-13)
(5.67752e-06 2.36165e-13 -2.57928e-13)
(5.67752e-06 1.62806e-13 -2.23636e-13)
(5.67752e-06 1.16951e-13 -2.44793e-13)
(5.67752e-06 1.00946e-13 -1.81428e-13)
(5.67752e-06 8.21068e-14 -1.54191e-13)
(5.67752e-06 7.03216e-14 -1.3329e-13)
(5.67752e-06 6.05233e-14 -1.15734e-13)
(5.67753e-06 5.2472e-14 -9.88705e-14)
(5.67753e-06 4.58982e-14 -8.71587e-14)
(5.67753e-06 4.0495e-14 -7.67913e-14)
(5.67753e-06 3.63139e-14 -6.84643e-14)
(5.67753e-06 3.2227e-14 -6.38575e-14)
(5.67753e-06 2.98344e-14 -5.72767e-14)
(5.67753e-06 2.73559e-14 -5.36247e-14)
(5.67753e-06 2.54205e-14 -4.78677e-14)
(5.67753e-06 2.31086e-14 -4.56388e-14)
(5.67753e-06 2.17354e-14 -4.0688e-14)
(5.67753e-06 2.00152e-14 -3.84834e-14)
(5.67753e-06 1.92139e-14 -3.43304e-14)
(5.67753e-06 1.8124e-14 -3.28049e-14)
(5.67753e-06 1.76641e-14 -3.20402e-14)
(5.67753e-06 1.69689e-14 -3.06797e-14)
(5.67753e-06 1.62807e-14 -2.70556e-14)
(5.67753e-06 1.50264e-14 -2.43779e-14)
(5.67753e-06 1.44555e-14 -2.0961e-14)
(5.67753e-06 1.32627e-14 -2.11473e-14)
(5.67753e-06 1.29721e-14 -1.78175e-14)
(5.67753e-06 1.16385e-14 -1.77817e-14)
(5.67753e-06 1.16678e-14 -1.71526e-14)
(5.67753e-06 1.14282e-14 -1.92257e-14)
(5.67753e-06 1.18546e-14 -1.5982e-14)
(5.67753e-06 1.03347e-14 -1.51531e-14)
(5.67753e-06 1.00047e-14 -1.14835e-14)
(5.67753e-06 8.75975e-15 -1.16497e-14)
(5.67753e-06 9.27545e-15 -1.19644e-14)
(5.67753e-06 8.8008e-15 -1.09144e-14)
(5.67753e-06 8.01771e-15 -6.54179e-15)
(5.67753e-06 6.14687e-15 -4.63994e-15)
(5.67753e-06 5.23164e-15 -8.03938e-16)
(5.67753e-06 4.10013e-15 -3.70925e-15)
(5.67753e-06 4.14388e-15 1.02622e-16)
(5.67753e-06 3.00013e-15 -2.30307e-15)
(5.67753e-06 3.8108e-15 -1.7726e-15)
(5.67753e-06 3.87393e-15 -6.38906e-15)
(5.67753e-06 4.84173e-15 -2.01742e-15)
(5.67753e-06 3.49447e-15 -3.74392e-15)
(5.67753e-06 3.09826e-15 1.49123e-15)
(5.67753e-06 1.85351e-15 -1.99334e-15)
(5.67753e-06 2.8117e-15 -6.79529e-16)
(5.67753e-06 2.90541e-15 -6.44075e-15)
(5.67753e-06 3.93677e-15 -8.65466e-16)
(5.67753e-06 2.70188e-15 -3.74679e-15)
(5.67753e-06 2.58022e-15 2.30553e-15)
(5.67753e-06 6.7428e-16 -1.11233e-15)
(5.67753e-06 1.0649e-15 1.59064e-15)
(5.67753e-06 5.24786e-16 -2.90573e-15)
(5.67753e-06 1.79593e-15 -5.19462e-16)
(5.67753e-06 1.48112e-15 -4.26931e-15)
(5.67753e-06 2.70084e-15 -1.64199e-15)
(5.67753e-06 2.09831e-15 -5.19234e-15)
(5.67753e-06 3.23922e-15 -2.9205e-15)
(5.67753e-06 2.52847e-15 -6.25559e-15)
(5.67753e-06 3.66519e-15 -4.1729e-15)
(5.67753e-06 2.89821e-15 -7.2658e-15)
(5.67753e-06 4.03005e-15 -5.11137e-15)
(5.67753e-06 3.77391e-15 -8.74914e-15)
(5.67753e-06 5.82492e-15 -7.85586e-15)
(5.67753e-06 5.97171e-15 -1.18043e-14)
(5.67753e-06 6.85023e-15 -6.81561e-15)
(5.67753e-06 4.72862e-15 -7.91832e-15)
(5.67753e-06 3.95161e-15 -2.96114e-15)
(5.67753e-06 2.21987e-15 -5.70903e-15)
(5.67753e-06 3.14915e-15 -4.64045e-15)
(5.67753e-06 3.41098e-15 -8.10157e-15)
(5.67753e-06 4.04369e-15 -3.27886e-15)
(5.67753e-06 2.19611e-15 -3.80417e-15)
(5.67753e-06 1.03834e-15 8.21187e-16)
(5.67753e-06 -5.95871e-16 -1.5353e-15)
(5.67753e-06 -8.6626e-17 -3.67665e-16)
(5.67753e-06 4.4813e-16 -3.65935e-15)
(5.67753e-06 9.42505e-16 1.32372e-15)
(5.67753e-06 -7.51915e-16 5.35293e-16)
(5.67753e-06 -1.42452e-15 5.04114e-15)
(5.67753e-06 -3.12543e-15 3.01589e-15)
(5.67753e-06 -3.00303e-15 4.78329e-15)
(5.67753e-06 -3.27994e-15 1.48391e-15)
(5.67753e-06 -2.09162e-15 3.59608e-15)
(5.67753e-06 -1.95124e-15 2.02783e-15)
(5.67753e-06 -1.28846e-15 2.60836e-15)
(5.67753e-06 -5.93842e-16 4.71829e-15)
(5.67753e-06 1.24147e-16 4.042e-15)
(5.67753e-06 2.35863e-15 -5.35784e-16)
(5.67753e-06 1.64777e-15 1.29543e-15)
(8.04188e-06 4.10988e-13 3.0565e-11)
(8.04187e-06 3.43981e-13 -2.13933e-11)
(8.04188e-06 6.23232e-13 8.81527e-12)
(8.04188e-06 4.63638e-13 -3.12753e-12)
(8.04188e-06 4.39846e-13 -1.70543e-13)
(8.04189e-06 3.35392e-13 3.05063e-13)
(8.04189e-06 2.46748e-13 -7.08801e-13)
(8.04189e-06 1.69486e-13 -1.59741e-13)
(8.04189e-06 1.13585e-13 -1.53465e-13)
(8.04189e-06 7.84275e-14 -2.25995e-13)
(8.04189e-06 6.89028e-14 -1.59023e-13)
(8.04189e-06 5.90895e-14 -1.29741e-13)
(8.04189e-06 5.33711e-14 -1.14368e-13)
(8.04189e-06 4.72363e-14 -9.84489e-14)
(8.04189e-06 4.25166e-14 -8.3733e-14)
(8.04189e-06 3.74831e-14 -7.34543e-14)
(8.04189e-06 3.38303e-14 -6.44276e-14)
(8.04189e-06 3.01315e-14 -5.73358e-14)
(8.04189e-06 2.7554e-14 -5.32187e-14)
(8.04189e-06 2.49441e-14 -4.83672e-14)
(8.04189e-06 2.30273e-14 -4.464e-14)
(8.04189e-06 2.06925e-14 -4.04396e-14)
(8.04189e-06 1.91001e-14 -3.84795e-14)
(8.04189e-06 1.77397e-14 -3.46169e-14)
(8.04189e-06 1.66054e-14 -3.26134e-14)
(8.04189e-06 1.59426e-14 -2.87451e-14)
(8.04189e-06 1.50426e-14 -2.83882e-14)
(8.04189e-06 1.51629e-14 -2.59888e-14)
(8.04189e-06 1.44575e-14 -2.61426e-14)
(8.04189e-06 1.41354e-14 -2.21058e-14)
(8.04189e-06 1.31745e-14 -1.9928e-14)
(8.04189e-06 1.28861e-14 -1.73037e-14)
(8.04189e-06 1.20974e-14 -1.69241e-14)
(8.04189e-06 1.13673e-14 -1.42749e-14)
(8.04189e-06 9.85379e-15 -1.43015e-14)
(8.04189e-06 9.58644e-15 -1.39745e-14)
(8.04189e-06 9.9137e-15 -1.58502e-14)
(8.0419e-06 1.03222e-14 -1.33128e-14)
(8.0419e-06 9.15105e-15 -1.17599e-14)
(8.0419e-06 8.35926e-15 -8.52523e-15)
(8.0419e-06 6.69019e-15 -9.80621e-15)
(8.0419e-06 7.33771e-15 -7.3488e-15)
(8.0419e-06 6.76869e-15 -8.72765e-15)
(8.0419e-06 6.5098e-15 -3.98189e-15)
(8.0419e-06 5.13865e-15 -2.53795e-15)
(8.0419e-06 4.8503e-15 1.604e-17)
(8.0419e-06 3.98425e-15 -1.45458e-15)
(8.0419e-06 3.4973e-15 1.07868e-15)
(8.0419e-06 1.68466e-15 -4.22936e-16)
(8.0419e-06 1.63662e-15 -6.50596e-16)
(8.0419e-06 2.43834e-15 -4.17954e-15)
(8.0419e-06 3.51785e-15 -1.30636e-15)
(8.0419e-06 2.82759e-15 -1.06008e-15)
(8.0419e-06 2.26215e-15 1.65148e-15)
(8.0419e-06 5.21453e-16 -5.63134e-16)
(8.0419e-06 5.29486e-16 -2.84821e-16)
(8.0419e-06 1.53882e-15 -4.46191e-15)
(8.0419e-06 2.78172e-15 -6.63383e-16)
(8.0419e-06 2.22582e-15 -1.19746e-15)
(8.0419e-06 2.03973e-15 1.98985e-15)
(8.0419e-06 2.12336e-16 -5.80924e-16)
(8.0419e-06 -1.55976e-16 9.86907e-16)
(8.0419e-06 -8.53745e-16 -2.76484e-15)
(8.0419e-06 -1.77184e-17 -6.98658e-16)
(8.0419e-06 -1.917e-16 -3.65679e-15)
(8.0419e-06 6.39629e-16 -1.64426e-15)
(8.0419e-06 5.23185e-16 -4.567e-15)
(8.0419e-06 1.0705e-15 -2.80195e-15)
(8.0419e-06 9.48138e-16 -5.62067e-15)
(8.0419e-06 1.38764e-15 -4.02753e-15)
(8.0419e-06 1.17696e-15 -6.4772e-15)
(8.0419e-06 1.58823e-15 -4.97541e-15)
(8.0419e-06 1.52974e-15 -7.6797e-15)
(8.0419e-06 2.73555e-15 -7.03312e-15)
(8.0419e-06 3.9586e-15 -9.9428e-15)
(8.0419e-06 5.22447e-15 -6.26247e-15)
(8.0419e-06 4.0708e-15 -5.53891e-15)
(8.0419e-06 3.3269e-15 -2.72731e-15)
(8.0419e-06 1.17843e-15 -4.91333e-15)
(8.0419e-06 1.33189e-15 -4.48611e-15)
(8.0419e-06 2.09053e-15 -7.21579e-15)
(8.0419e-06 3.27787e-15 -3.26477e-15)
(8.0419e-06 2.1551e-15 -2.05039e-15)
(8.0419e-06 1.26e-15 3.63872e-16)
(8.0419e-06 -9.4737e-16 -1.28942e-15)
(8.0419e-06 -1.06296e-15 -7.00648e-16)
(8.0419e-06 -4.69739e-16 -2.99701e-15)
(8.0419e-06 7.83079e-16 9.47502e-16)
(8.0419e-06 1.19898e-16 1.58308e-15)
(8.0419e-06 -5.19237e-16 3.90429e-15)
(8.0419e-06 -2.49094e-15 2.72854e-15)
(8.0419e-06 -3.03383e-15 3.75507e-15)
(8.0419e-06 -3.66865e-15 1.08989e-15)
(8.0419e-06 -2.75874e-15 2.98708e-15)
(8.0419e-06 -2.98297e-15 1.85844e-15)
(8.0419e-06 -2.6186e-15 1.84913e-15)
(8.0419e-06 -3.29947e-15 6.97765e-15)
(8.0419e-06 -2.50686e-15 1.67544e-15)
(8.0419e-06 -2.37415e-15 -1.90663e-15)
(8.0419e-06 -6.73566e-16 3.80276e-15)
(5.67752e-06 -2.39411e-12 2.07675e-11)
(5.67751e-06 1.69564e-12 -1.16074e-11)
(5.67752e-06 -1.06991e-12 4.51707e-12)
(5.67752e-06 1.6156e-13 -2.65999e-12)
(5.67752e-06 -5.11522e-14 -1.47545e-13)
(5.67752e-06 -6.77102e-14 1.66971e-14)
(5.67752e-06 1.12812e-15 -6.24987e-13)
(5.67752e-06 -5.08817e-14 -1.95737e-13)
(5.67752e-06 -3.62344e-14 -1.96359e-13)
(5.67752e-06 -2.82084e-14 -2.27528e-13)
(5.67752e-06 -2.53963e-14 -1.67467e-13)
(5.67752e-06 -1.90713e-14 -1.35552e-13)
(5.67752e-06 -1.24e-14 -1.17835e-13)
(5.67752e-06 -1.01451e-14 -9.99077e-14)
(5.67753e-06 -7.05563e-15 -8.438e-14)
(5.67753e-06 -5.88872e-15 -7.43992e-14)
(5.67753e-06 -4.74882e-15 -6.39498e-14)
(5.67753e-06 -3.92929e-15 -5.85317e-14)
(5.67753e-06 -3.55358e-15 -5.13529e-14)
(5.67753e-06 -2.77636e-15 -4.86327e-14)
(5.67753e-06 -3.32234e-15 -4.30192e-14)
(5.67753e-06 -2.70449e-15 -4.15621e-14)
(5.67753e-06 -3.07743e-15 -3.7439e-14)
(5.67753e-06 -2.31338e-15 -3.58073e-14)
(5.67753e-06 -2.60227e-15 -3.22206e-14)
(5.67753e-06 -1.93061e-15 -3.07338e-14)
(5.67753e-06 -2.38718e-15 -2.86966e-14)
(5.67753e-06 -1.53489e-15 -2.85038e-14)
(5.67753e-06 -1.75534e-15 -2.65695e-14)
(5.67753e-06 -9.90177e-16 -2.39999e-14)
(5.67753e-06 -1.09815e-15 -2.04812e-14)
(5.67753e-06 -3.90981e-16 -1.9038e-14)
(5.67753e-06 -6.06713e-16 -1.72883e-14)
(5.67753e-06 -4.49167e-16 -1.60219e-14)
(5.67753e-06 -1.24046e-15 -1.54379e-14)
(5.67753e-06 -1.06889e-15 -1.69635e-14)
(5.67753e-06 -1.04541e-15 -1.64594e-14)
(5.67753e-06 -4.85024e-16 -1.53871e-14)
(5.67753e-06 -9.23354e-16 -1.20619e-14)
(5.67753e-06 -5.64645e-16 -1.13551e-14)
(5.67753e-06 -1.83521e-15 -1.01911e-14)
(5.67753e-06 -1.09819e-15 -1.18207e-14)
(5.67753e-06 -1.58672e-15 -9.05106e-15)
(5.67753e-06 -3.10352e-16 -6.74169e-15)
(5.67753e-06 -3.66237e-16 -1.72635e-15)
(5.67753e-06 6.91216e-16 -1.63957e-15)
(5.67753e-06 2.78868e-16 -8.17263e-17)
(5.67753e-06 3.07717e-16 -3.15437e-16)
(5.67753e-06 -1.00957e-15 -2.57355e-16)
(5.67753e-06 -1.35471e-15 -4.20928e-15)
(5.67753e-06 -1.27636e-15 -3.27186e-15)
(5.67753e-06 -2.99952e-16 -3.81704e-15)
(5.67753e-06 -4.58519e-16 2.77535e-16)
(5.67753e-06 -4.76375e-18 -8.51787e-16)
(5.67753e-06 -1.48796e-15 6.70947e-16)
(5.67753e-06 -1.53814e-15 -4.81447e-15)
(5.67753e-06 -1.51635e-15 -2.31557e-15)
(5.67753e-06 -1.63149e-16 -3.47365e-15)
(5.67753e-06 -3.81821e-16 1.67501e-15)
(5.67753e-06 4.80149e-16 -4.07986e-16)
(5.67753e-06 -5.47617e-16 2.18422e-15)
(5.67753e-06 -4.84618e-16 -1.50962e-15)
(5.67753e-06 -1.27793e-15 -1.03678e-16)
(5.67753e-06 -1.02814e-15 -3.00655e-15)
(5.67753e-06 -1.51116e-15 -1.45926e-15)
(5.67753e-06 -1.1928e-15 -4.06175e-15)
(5.67753e-06 -1.60992e-15 -2.54261e-15)
(5.67753e-06 -1.28736e-15 -5.05478e-15)
(5.67753e-06 -1.56506e-15 -3.74573e-15)
(5.67753e-06 -1.32349e-15 -6.08262e-15)
(5.67753e-06 -1.64298e-15 -4.75116e-15)
(5.67753e-06 -1.50194e-15 -7.17557e-15)
(5.67753e-06 -2.35129e-15 -6.47002e-15)
(5.67753e-06 -1.93494e-15 -1.06105e-14)
(5.67753e-06 -1.86809e-15 -8.17172e-15)
(5.67753e-06 -1.5107e-16 -8.06237e-15)
(5.67753e-06 -4.36758e-16 -3.54858e-15)
(5.67753e-06 4.28283e-16 -4.38693e-15)
(5.67753e-06 -1.25425e-15 -3.20595e-15)
(5.67753e-06 -1.09706e-15 -7.05235e-15)
(5.67753e-06 -1.27183e-15 -5.19782e-15)
(5.67753e-06 1.25275e-16 -4.16135e-15)
(5.67753e-06 1.75365e-16 -3.90134e-16)
(5.67753e-06 7.40991e-16 -4.54653e-16)
(5.67753e-06 -7.11607e-16 1.34953e-16)
(5.67753e-06 -7.85364e-16 -3.01999e-15)
(5.67753e-06 -9.85901e-16 -1.0606e-15)
(5.67753e-06 4.59383e-16 -6.45627e-17)
(5.67753e-06 8.00363e-16 3.56739e-15)
(5.67753e-06 1.47234e-15 3.30297e-15)
(5.67753e-06 2.96854e-16 4.65107e-15)
(5.67753e-06 3.89455e-16 2.62013e-15)
(5.67753e-06 -8.37186e-16 3.06752e-15)
(5.67753e-06 -3.79993e-16 1.48003e-15)
(5.67753e-06 -1.52466e-15 3.13151e-15)
(5.67753e-06 -1.42971e-15 1.99381e-16)
(5.67753e-06 -3.23615e-15 5.08038e-15)
(5.67753e-06 -2.63727e-15 1.27012e-15)
(5.67753e-06 -4.52705e-15 -1.02939e-15)
(5.67753e-06 -2.50923e-15 1.994e-15)
(7.05758e-06 1.88276e-11 1.99007e-11)
(7.05757e-06 -1.17409e-11 -1.08963e-11)
(7.05758e-06 3.83163e-12 5.13699e-12)
(7.05757e-06 -2.39937e-12 -1.6139e-12)
(7.05758e-06 -1.63253e-13 4.42786e-13)
(7.05758e-06 1.13454e-13 5.253e-13)
(7.05758e-06 -3.22506e-13 -6.57631e-14)
(7.05758e-06 -6.65557e-15 1.33926e-13)
(7.05758e-06 -2.95314e-14 8.83635e-14)
(7.05758e-06 -8.5082e-14 1.01326e-14)
(7.05758e-06 -5.65513e-14 3.83062e-14)
(7.05758e-06 -5.33815e-14 2.76192e-14)
(7.05758e-06 -5.07354e-14 2.70992e-14)
(7.05758e-06 -4.51123e-14 2.11776e-14)
(7.05758e-06 -3.86339e-14 2.18566e-14)
(7.05759e-06 -3.39276e-14 1.69403e-14)
(7.05759e-06 -2.92457e-14 1.42192e-14)
(7.05759e-06 -2.4575e-14 1.05298e-14)
(7.05759e-06 -2.21288e-14 3.89277e-15)
(7.05759e-06 -1.73783e-14 4.00407e-15)
(7.05759e-06 -1.52868e-14 -3.28604e-16)
(7.05759e-06 -1.24416e-14 2.06426e-15)
(7.05759e-06 -1.26757e-14 -2.0121e-15)
(7.05759e-06 -1.09834e-14 1.7873e-15)
(7.05759e-06 -1.07832e-14 1.7905e-16)
(7.05759e-06 -9.20465e-15 4.05714e-15)
(7.05759e-06 -8.47422e-15 1.73895e-15)
(7.05759e-06 -9.2187e-15 3.14732e-15)
(7.05759e-06 -8.50785e-15 8.29707e-16)
(7.05759e-06 -7.25585e-15 4.35403e-15)
(7.05759e-06 -6.08021e-15 3.25868e-15)
(7.05759e-06 -4.39285e-15 5.66447e-15)
(7.05759e-06 -4.87807e-15 2.28101e-15)
(7.05759e-06 -2.99503e-15 4.82057e-15)
(7.05759e-06 -3.44959e-15 2.28741e-15)
(7.05759e-06 -3.9962e-15 4.96762e-15)
(7.05759e-06 -6.19294e-15 2.68836e-15)
(7.05759e-06 -4.70278e-15 7.60789e-15)
(7.05759e-06 -4.94288e-15 5.26236e-15)
(7.05759e-06 -2.95674e-15 8.24114e-15)
(7.05759e-06 -1.82968e-15 2.49429e-15)
(7.05759e-06 -2.59667e-15 4.30991e-15)
(7.05759e-06 -6.49284e-16 8.90249e-16)
(7.05759e-06 1.00357e-16 6.69468e-15)
(7.05759e-06 7.42295e-16 3.32783e-15)
(7.05759e-06 2.32268e-15 6.14145e-15)
(7.05759e-06 9.29039e-16 -4.93883e-16)
(7.05759e-06 3.8399e-15 3.40104e-15)
(7.05759e-06 2.8618e-15 -1.06203e-15)
(7.05759e-06 2.1203e-15 2.78843e-15)
(7.05759e-06 -1.76492e-15 -1.22517e-15)
(7.05759e-06 -2.99917e-17 6.00153e-15)
(7.05759e-06 -9.75806e-16 1.60728e-15)
(7.05759e-06 2.43964e-15 6.00814e-15)
(7.05759e-06 1.4922e-15 -1.011e-15)
(7.05759e-06 1.99495e-15 3.61186e-15)
(7.05759e-06 -2.16088e-15 -2.94191e-15)
(7.05759e-06 7.77081e-16 5.63052e-15)
(7.05759e-06 -4.82829e-16 -5.11768e-16)
(7.05759e-06 3.76425e-15 5.19989e-15)
(7.05759e-06 2.33623e-15 -3.34199e-15)
(7.05759e-06 4.63373e-15 1.72321e-15)
(7.05759e-06 1.93821e-15 -5.38418e-15)
(7.05759e-06 3.63402e-15 7.62365e-16)
(7.05759e-06 1.64732e-15 -4.76097e-15)
(7.05759e-06 3.02953e-15 1.24494e-15)
(7.05759e-06 1.26836e-15 -4.22038e-15)
(7.05759e-06 2.06394e-15 1.49431e-15)
(7.05759e-06 5.57481e-16 -3.99022e-15)
(7.05759e-06 1.10461e-15 1.53331e-15)
(7.05759e-06 -4.23591e-16 -3.33189e-15)
(7.05759e-06 3.00723e-16 2.15735e-15)
(7.05759e-06 -1.35986e-15 -2.31493e-15)
(7.05759e-06 -2.13076e-15 3.71069e-15)
(7.05759e-06 -4.7177e-15 -8.21272e-16)
(7.05759e-06 -2.34768e-15 7.09026e-15)
(7.05759e-06 -3.01556e-15 1.60846e-15)
(7.05759e-06 -2.77192e-16 5.43116e-15)
(7.05759e-06 -6.36211e-16 -2.04985e-15)
(7.05759e-06 -5.89028e-16 2.55763e-15)
(7.05759e-06 -2.90507e-15 -2.21515e-15)
(7.05759e-06 -9.61856e-16 4.94089e-15)
(7.05759e-06 -1.46662e-15 4.30136e-16)
(7.05759e-06 1.33259e-15 3.09337e-15)
(7.05759e-06 5.91874e-16 -3.46581e-15)
(7.05759e-06 1.23783e-15 3.18337e-16)
(7.05759e-06 -1.10806e-15 -3.79952e-15)
(7.05759e-06 1.47825e-15 3.04262e-15)
(7.05759e-06 1.85384e-16 -1.70797e-15)
(7.05759e-06 3.67591e-15 1.07794e-15)
(7.05759e-06 3.83045e-15 -5.95411e-15)
(7.05759e-06 5.13939e-15 -3.00206e-15)
(7.05759e-06 3.58394e-15 -8.19694e-15)
(7.05759e-06 4.86126e-15 -2.72791e-15)
(7.05759e-06 4.2834e-15 -5.61665e-15)
(7.05759e-06 3.38011e-15 -1.05251e-15)
(7.05759e-06 5.55308e-15 -5.66788e-16)
(7.05759e-06 3.07744e-15 3.50413e-15)
(7.05759e-06 7.54883e-16 -1.61776e-15)
(7.05759e-06 2.01027e-15 3.86908e-15)
(1.63222e-05 2.7204e-11 3.55844e-11)
(1.63222e-05 -2.17503e-11 -3.94261e-11)
(1.63222e-05 9.38511e-12 1.72741e-11)
(1.63222e-05 -1.87172e-12 -6.30948e-12)
(1.63222e-05 3.49334e-13 2.72512e-13)
(1.63222e-05 1.06863e-12 1.91694e-12)
(1.63222e-05 -2.38349e-14 -4.89398e-13)
(1.63222e-05 3.54325e-13 3.27133e-13)
(1.63222e-05 2.40485e-13 3.28016e-13)
(1.63222e-05 6.50403e-14 5.80653e-14)
(1.63222e-05 6.61179e-14 9.91366e-14)
(1.63222e-05 4.84432e-14 9.4677e-14)
(1.63222e-05 3.35762e-14 7.5452e-14)
(1.63222e-05 2.83943e-14 6.28905e-14)
(1.63223e-05 2.47402e-14 5.87317e-14)
(1.63223e-05 2.37467e-14 4.87049e-14)
(1.63223e-05 2.17604e-14 4.14493e-14)
(1.63223e-05 2.4608e-14 3.47882e-14)
(1.63223e-05 2.21229e-14 2.48339e-14)
(1.63223e-05 2.56642e-14 2.10883e-14)
(1.63223e-05 2.4064e-14 1.26989e-14)
(1.63223e-05 2.40843e-14 1.30377e-14)
(1.63223e-05 1.94648e-14 7.51991e-15)
(1.63223e-05 1.85267e-14 9.80084e-15)
(1.63223e-05 1.48924e-14 6.22099e-15)
(1.63223e-05 1.53549e-14 8.60309e-15)
(1.63223e-05 1.26378e-14 5.43358e-15)
(1.63223e-05 1.25026e-14 6.17981e-15)
(1.63223e-05 1.10307e-14 5.51114e-15)
(1.63223e-05 1.28286e-14 9.35456e-15)
(1.63223e-05 1.2513e-14 7.85961e-15)
(1.63223e-05 1.34713e-14 8.26548e-15)
(1.63223e-05 1.15073e-14 4.98013e-15)
(1.63223e-05 1.34281e-14 8.39507e-15)
(1.63223e-05 1.05877e-14 6.42587e-15)
(1.63223e-05 9.31595e-15 7.5886e-15)
(1.63223e-05 5.24057e-15 5.84412e-15)
(1.63223e-05 7.29343e-15 1.15158e-14)
(1.63223e-05 5.64249e-15 1.06132e-14)
(1.63223e-05 9.04497e-15 1.30766e-14)
(1.63223e-05 6.46227e-15 6.392e-15)
(1.63223e-05 9.60036e-15 6.9669e-15)
(1.63223e-05 7.01625e-15 3.91133e-15)
(1.63223e-05 1.01408e-14 9.45194e-15)
(1.63223e-05 9.14458e-15 6.38455e-15)
(1.63223e-05 9.61789e-15 8.53945e-15)
(1.63223e-05 8.55642e-15 1.56786e-15)
(1.63223e-05 1.04774e-14 5.92204e-15)
(1.63223e-05 8.34028e-15 5.7708e-17)
(1.63223e-05 6.56379e-15 3.09921e-15)
(1.63223e-05 1.43516e-15 -2.11171e-16)
(1.63223e-05 3.68033e-15 8.89948e-15)
(1.63223e-05 3.71528e-15 5.20026e-15)
(1.63223e-05 5.88625e-15 9.78362e-15)
(1.63223e-05 5.2137e-15 6.12187e-16)
(1.63223e-05 4.8851e-15 4.3959e-15)
(1.63223e-05 7.44162e-16 -1.12495e-15)
(1.63223e-05 3.59056e-15 8.73805e-15)
(1.63223e-05 4.79879e-15 1.6079e-15)
(1.63223e-05 6.72619e-15 7.11941e-15)
(1.63223e-05 4.96778e-15 -4.1707e-15)
(1.63223e-05 5.88831e-15 4.03896e-16)
(1.63223e-05 3.50004e-15 -7.85501e-15)
(1.63223e-05 5.61005e-15 -4.9e-16)
(1.63223e-05 3.75227e-15 -6.81792e-15)
(1.63223e-05 6.02684e-15 4.74204e-16)
(1.63223e-05 3.51225e-15 -6.01589e-15)
(1.63223e-05 5.89778e-15 9.25433e-16)
(1.63223e-05 2.87012e-15 -5.33252e-15)
(1.63223e-05 5.34511e-15 1.45245e-15)
(1.63223e-05 2.20903e-15 -4.09693e-15)
(1.63223e-05 4.59908e-15 1.95816e-15)
(1.63223e-05 1.32184e-15 -3.50151e-15)
(1.63223e-05 3.00476e-15 2.98975e-15)
(1.63223e-05 -9.87286e-16 6.41234e-17)
(1.63223e-05 2.88438e-15 1.01783e-14)
(1.63223e-05 2.66314e-15 5.32085e-15)
(1.63223e-05 5.17383e-15 9.13366e-15)
(1.63223e-05 2.99626e-15 -1.17723e-15)
(1.63223e-05 2.75659e-15 1.69223e-15)
(1.63223e-05 -8.824e-16 -2.48451e-15)
(1.63223e-05 1.58893e-15 6.78244e-15)
(1.63223e-05 2.4163e-15 3.01379e-15)
(1.63223e-05 3.6534e-15 5.6892e-15)
(1.63223e-05 2.65962e-15 -3.45601e-15)
(1.63223e-05 1.44393e-15 -1.46564e-15)
(1.63223e-05 -6.49391e-16 -5.01583e-15)
(1.63223e-05 7.21202e-16 3.08161e-15)
(1.63223e-05 1.11677e-15 -1.13065e-15)
(1.63223e-05 3.42237e-15 1.40955e-15)
(1.63223e-05 3.20575e-15 -7.36852e-15)
(1.63223e-05 3.87389e-15 -5.54626e-15)
(1.63223e-05 1.86125e-15 -1.23262e-14)
(1.63223e-05 3.09479e-15 -6.49473e-15)
(1.63223e-05 1.63643e-15 -9.30339e-15)
(1.63223e-05 3.11141e-16 -7.28087e-15)
(1.63223e-05 2.58809e-15 1.24686e-16)
(1.63223e-05 -8.9501e-15 -8.98199e-15)
(1.63223e-05 -1.06878e-14 -1.99699e-14)
(1.63223e-05 -1.83361e-15 -8.10445e-15)
(1.91534e-05 3.57083e-13 3.12284e-11)
(1.91533e-05 1.64847e-12 -3.31291e-11)
(1.91534e-05 1.91666e-12 2.42619e-11)
(1.91534e-05 1.64989e-12 -9.48502e-12)
(1.91534e-05 1.41009e-12 1.53356e-12)
(1.91534e-05 9.93428e-13 2.9251e-12)
(1.91534e-05 7.03504e-13 -6.17831e-13)
(1.91534e-05 5.52715e-13 5.53739e-13)
(1.91534e-05 3.55524e-13 5.13648e-13)
(1.91534e-05 2.64012e-13 1.68332e-13)
(1.91534e-05 2.14929e-13 1.88501e-13)
(1.91534e-05 1.87821e-13 1.88877e-13)
(1.91534e-05 1.68879e-13 1.53026e-13)
(1.91534e-05 1.50407e-13 1.28565e-13)
(1.91534e-05 1.35013e-13 1.16811e-13)
(1.91534e-05 1.19097e-13 9.71281e-14)
(1.91534e-05 1.08705e-13 8.79336e-14)
(1.91534e-05 9.60286e-14 7.1424e-14)
(1.91534e-05 9.15557e-14 6.6101e-14)
(1.91534e-05 8.15915e-14 5.10515e-14)
(1.91534e-05 7.73306e-14 4.75768e-14)
(1.91534e-05 6.7647e-14 3.80468e-14)
(1.91534e-05 6.38421e-14 3.72053e-14)
(1.91534e-05 5.7381e-14 3.14906e-14)
(1.91534e-05 5.40099e-14 3.06819e-14)
(1.91534e-05 4.99279e-14 2.6746e-14)
(1.91534e-05 4.72062e-14 2.7035e-14)
(1.91534e-05 4.71075e-14 2.46076e-14)
(1.91534e-05 4.54457e-14 2.46618e-14)
(1.91534e-05 4.3195e-14 2.35236e-14)
(1.91534e-05 4.06004e-14 2.35943e-14)
(1.91534e-05 3.79275e-14 2.02091e-14)
(1.91534e-05 3.70715e-14 2.00673e-14)
(1.91534e-05 3.34036e-14 1.82867e-14)
(1.91534e-05 2.99176e-14 1.85754e-14)
(1.91534e-05 2.75512e-14 1.54793e-14)
(1.91534e-05 3.12148e-14 1.84308e-14)
(1.91534e-05 2.90727e-14 1.86987e-14)
(1.91534e-05 2.79333e-14 2.18973e-14)
(1.91534e-05 2.26689e-14 1.76563e-14)
(1.91534e-05 2.00923e-14 1.6613e-14)
(1.91534e-05 2.07533e-14 1.15728e-14)
(1.91534e-05 2.0709e-14 1.41333e-14)
(1.91534e-05 1.77532e-14 1.23827e-14)
(1.91534e-05 1.77352e-14 1.55278e-14)
(1.91534e-05 1.16553e-14 8.21223e-15)
(1.91534e-05 1.52115e-14 9.78719e-15)
(1.91534e-05 8.64386e-15 5.63816e-15)
(1.91534e-05 7.83578e-15 6.75543e-15)
(1.91534e-05 2.37771e-15 1.37253e-15)
(1.91534e-05 1.05124e-14 7.86295e-15)
(1.91534e-05 6.83204e-15 6.18654e-15)
(1.91534e-05 1.2664e-14 1.39739e-14)
(1.91534e-05 2.54177e-15 6.23732e-15)
(1.91534e-05 5.15632e-15 8.87568e-15)
(1.91534e-05 -2.11846e-15 -2.07597e-17)
(1.91534e-05 9.79718e-15 8.06543e-15)
(1.91534e-05 4.67726e-15 4.33727e-15)
(1.91534e-05 1.27729e-14 1.20891e-14)
(1.91534e-05 2.19471e-15 2.51689e-15)
(1.91534e-05 5.64691e-15 5.13813e-15)
(1.91534e-05 -2.9989e-15 -4.49197e-15)
(1.91534e-05 2.93373e-15 6.00093e-16)
(1.91534e-05 -1.81118e-15 -4.75338e-15)
(1.91534e-05 4.29407e-15 1.37532e-15)
(1.91534e-05 2.66207e-16 -3.60118e-15)
(1.91534e-05 5.43152e-15 2.87741e-15)
(1.91534e-05 1.77646e-15 -2.63353e-15)
(1.91534e-05 6.0703e-15 3.78778e-15)
(1.91534e-05 2.9689e-15 -1.62755e-15)
(1.91534e-05 6.67128e-15 4.71504e-15)
(1.91534e-05 3.0993e-15 -6.1191e-16)
(1.91534e-05 7.21371e-15 5.25632e-15)
(1.91534e-05 5.63236e-15 3.63578e-16)
(1.91534e-05 1.52019e-14 9.29437e-15)
(1.91534e-05 1.28275e-14 7.4063e-15)
(1.91534e-05 1.6622e-14 1.38115e-14)
(1.91534e-05 7.57919e-15 6.62104e-15)
(1.91534e-05 7.20872e-15 6.55153e-15)
(1.91534e-05 2.83018e-15 -3.03496e-16)
(1.91534e-05 9.8137e-15 4.46099e-15)
(1.91534e-05 8.04357e-15 4.91321e-15)
(1.91534e-05 1.03217e-14 8.58844e-15)
(1.91534e-05 1.75213e-15 3.573e-15)
(1.91534e-05 6.29253e-16 7.08969e-16)
(1.91534e-05 -4.77491e-15 -4.7357e-15)
(1.91534e-05 2.76282e-15 -5.07834e-16)
(1.91534e-05 5.88064e-16 5.71175e-16)
(1.91534e-05 4.32573e-15 3.72532e-15)
(1.91534e-05 -3.122e-15 -2.45105e-15)
(1.91534e-05 -3.90315e-15 -3.50677e-15)
(1.91534e-05 -9.97062e-15 -1.06384e-14)
(1.91534e-05 -6.26125e-15 -8.74393e-15)
(1.91534e-05 -9.73785e-15 -1.18875e-14)
(1.91534e-05 -5.9525e-15 -4.69521e-15)
(1.91534e-05 -9.71917e-15 -1.18496e-14)
(1.91534e-05 -7.97679e-15 5.2604e-15)
(1.91534e-05 -1.05544e-14 -7.95446e-15)
(1.91534e-05 -6.04564e-15 -1.872e-14)
(1.91534e-05 -1.47492e-15 -1.39663e-14)
(1.63222e-05 -2.61234e-11 3.56068e-11)
(1.63222e-05 2.40924e-11 -3.72767e-11)
(1.63222e-05 -7.04575e-12 1.63767e-11)
(1.63222e-05 3.91126e-12 -7.13389e-12)
(1.63222e-05 1.46494e-12 2.92047e-13)
(1.63222e-05 2.63077e-13 1.66228e-12)
(1.63222e-05 9.90702e-13 -8.21328e-13)
(1.63222e-05 3.74362e-13 1.18528e-13)
(1.63222e-05 2.52882e-13 1.33595e-13)
(1.63222e-05 2.74517e-13 -1.06252e-13)
(1.63222e-05 2.08774e-13 -3.02221e-14)
(1.63222e-05 1.82076e-13 -4.35653e-15)
(1.63222e-05 1.79249e-13 -9.67747e-15)
(1.63222e-05 1.59931e-13 -3.46176e-15)
(1.63223e-05 1.44303e-13 2.26611e-15)
(1.63223e-05 1.27892e-13 3.52725e-15)
(1.63223e-05 1.13684e-13 2.71538e-15)
(1.63223e-05 9.97313e-14 2.21471e-15)
(1.63223e-05 8.88472e-14 -1.50105e-15)
(1.63223e-05 7.94302e-14 -4.46024e-15)
(1.63223e-05 6.95063e-14 -7.14188e-15)
(1.63223e-05 6.37921e-14 -8.43202e-15)
(1.63223e-05 5.83686e-14 -9.44457e-15)
(1.63223e-05 5.59054e-14 -8.5377e-15)
(1.63223e-05 5.17604e-14 -8.43077e-15)
(1.63223e-05 4.9782e-14 -7.01764e-15)
(1.63223e-05 4.74265e-14 -6.79081e-15)
(1.63223e-05 4.78459e-14 -7.70834e-15)
(1.63223e-05 4.65844e-14 -6.96351e-15)
(1.63223e-05 4.43011e-14 -3.9628e-15)
(1.63223e-05 4.01874e-14 -2.12558e-15)
(1.63223e-05 3.9103e-14 -7.34765e-16)
(1.63223e-05 3.65102e-14 -1.62672e-15)
(1.63223e-05 3.30942e-14 -1.17688e-16)
(1.63223e-05 2.89941e-14 -1.87123e-15)
(1.63223e-05 3.06726e-14 -1.82467e-15)
(1.63223e-05 3.36342e-14 -3.50619e-15)
(1.63223e-05 3.36216e-14 1.2118e-15)
(1.63223e-05 2.87906e-14 1.62891e-15)
(1.63223e-05 2.47127e-14 3.42161e-15)
(1.63223e-05 2.02316e-14 2.492e-16)
(1.63223e-05 2.12257e-14 -1.44602e-15)
(1.63223e-05 2.03464e-14 -2.55371e-15)
(1.63223e-05 1.90881e-14 2.83494e-15)
(1.63223e-05 1.42921e-14 4.14827e-15)
(1.63223e-05 1.2838e-14 8.93595e-15)
(1.63223e-05 1.00058e-14 2.98284e-15)
(1.63223e-05 6.88228e-15 6.5049e-15)
(1.63223e-05 2.17217e-15 -8.57733e-16)
(1.63223e-05 4.83001e-15 2.78029e-15)
(1.63223e-05 1.04138e-14 -2.89889e-15)
(1.63223e-05 1.34039e-14 6.08941e-15)
(1.63223e-05 9.21397e-15 2.28484e-15)
(1.63223e-05 5.54987e-15 8.64936e-15)
(1.63223e-05 -8.5378e-16 -2.21931e-16)
(1.63223e-05 2.10447e-15 3.35202e-15)
(1.63223e-05 7.83885e-15 -5.03899e-15)
(1.63223e-05 1.15107e-14 6.23476e-15)
(1.63223e-05 7.01494e-15 6.75892e-16)
(1.63223e-05 4.87637e-15 7.98197e-15)
(1.63223e-05 -1.33929e-16 -1.53288e-15)
(1.63223e-05 -9.96886e-16 2.41772e-15)
(1.63223e-05 -1.06086e-15 -6.24666e-15)
(1.63223e-05 1.74269e-16 -1.30812e-16)
(1.63223e-05 8.1853e-16 -7.12949e-15)
(1.63223e-05 2.29561e-15 -6.14162e-16)
(1.63223e-05 2.70104e-15 -6.78632e-15)
(1.63223e-05 3.82766e-15 -8.04388e-16)
(1.63223e-05 4.34496e-15 -6.64617e-15)
(1.63223e-05 5.61667e-15 -1.37977e-15)
(1.63223e-05 5.57983e-15 -6.77568e-15)
(1.63223e-05 6.82433e-15 -1.65437e-15)
(1.63223e-05 6.91905e-15 -6.96935e-15)
(1.63223e-05 1.30824e-14 -2.72842e-15)
(1.63223e-05 1.78701e-14 -5.76979e-15)
(1.63223e-05 2.19847e-14 2.6562e-15)
(1.63223e-05 1.57332e-14 9.62508e-16)
(1.63223e-05 1.19692e-14 5.57848e-15)
(1.63223e-05 5.0937e-15 -2.01813e-15)
(1.63223e-05 7.82124e-15 -1.12316e-15)
(1.63223e-05 1.17965e-14 -5.60502e-15)
(1.63223e-05 1.43878e-14 2.29696e-15)
(1.63223e-05 8.18646e-15 4.06113e-16)
(1.63223e-05 3.35641e-15 5.26645e-15)
(1.63223e-05 -4.04588e-15 -1.77938e-15)
(1.63223e-05 -1.95538e-15 -6.97253e-16)
(1.63223e-05 2.06028e-15 -5.86405e-15)
(1.63223e-05 4.96525e-15 3.13308e-15)
(1.63223e-05 4.75125e-16 8.38056e-16)
(1.63223e-05 -3.28587e-15 5.68757e-15)
(1.63223e-05 -1.09702e-14 -1.43248e-15)
(1.63223e-05 -1.21297e-14 1.33959e-16)
(1.63223e-05 -1.37672e-14 -6.82651e-15)
(1.63223e-05 -1.17901e-14 -2.33164e-15)
(1.63223e-05 -1.2706e-14 -5.1964e-15)
(1.63223e-05 -9.92214e-15 -4.73241e-15)
(1.63223e-05 -1.58827e-14 1.31683e-15)
(1.63223e-05 -1.71976e-15 -1.11996e-14)
(1.63223e-05 2.1578e-15 -1.73182e-14)
(1.63223e-05 -1.50888e-15 -5.37178e-15)
(7.05758e-06 -1.81079e-11 1.94715e-11)
(7.05757e-06 1.25712e-11 -1.12884e-11)
(7.05758e-06 -3.20001e-12 4.41937e-12)
(7.05757e-06 2.89887e-12 -2.22845e-12)
(7.05758e-06 5.88144e-13 1.81212e-13)
(7.05758e-06 2.47915e-13 1.35802e-13)
(7.05758e-06 6.27821e-13 -3.69654e-13)
(7.05758e-06 2.23029e-13 -8.35949e-14)
(7.05758e-06 1.97224e-13 -8.48859e-14)
(7.05758e-06 1.96621e-13 -1.41608e-13)
(7.05758e-06 1.47289e-13 -8.8182e-14)
(7.05758e-06 1.27155e-13 -8.03754e-14)
(7.05758e-06 1.17142e-13 -6.20717e-14)
(7.05758e-06 1.03371e-13 -5.49452e-14)
(7.05758e-06 8.97222e-14 -4.15644e-14)
(7.05759e-06 8.05304e-14 -3.71161e-14)
(7.05759e-06 6.91882e-14 -3.19521e-14)
(7.05759e-06 6.3798e-14 -2.88753e-14)
(7.05759e-06 5.37576e-14 -2.91779e-14)
(7.05759e-06 5.03402e-14 -2.4781e-14)
(7.05759e-06 4.1731e-14 -2.60549e-14)
(7.05759e-06 4.08553e-14 -2.1184e-14)
(7.05759e-06 3.51185e-14 -2.35496e-14)
(7.05759e-06 3.49998e-14 -1.81463e-14)
(7.05759e-06 3.06614e-14 -1.9444e-14)
(7.05759e-06 3.07653e-14 -1.433e-14)
(7.05759e-06 2.80404e-14 -1.76906e-14)
(7.05759e-06 2.90679e-14 -1.33127e-14)
(7.05759e-06 2.69628e-14 -1.60776e-14)
(7.05759e-06 2.61507e-14 -1.0153e-14)
(7.05759e-06 2.26339e-14 -1.10496e-14)
(7.05759e-06 2.25318e-14 -6.76582e-15)
(7.05759e-06 1.97708e-14 -9.49909e-15)
(7.05759e-06 1.93964e-14 -5.10421e-15)
(7.05759e-06 1.67226e-14 -9.27079e-15)
(7.05759e-06 1.95599e-14 -5.9293e-15)
(7.05759e-06 1.83784e-14 -1.01024e-14)
(7.05759e-06 1.97765e-14 -4.18282e-15)
(7.05759e-06 1.53562e-14 -7.15212e-15)
(7.05759e-06 1.57954e-14 -1.79936e-15)
(7.05759e-06 1.1154e-14 -8.88891e-15)
(7.05759e-06 1.37473e-14 -2.0914e-15)
(7.05759e-06 9.73344e-15 -7.9756e-15)
(7.05759e-06 1.08051e-14 2.36833e-15)
(7.05759e-06 4.82079e-15 -2.01676e-15)
(7.05759e-06 6.82827e-15 5.79888e-15)
(7.05759e-06 2.18942e-15 -2.13734e-15)
(7.05759e-06 3.15158e-15 5.30487e-15)
(7.05759e-06 -4.22242e-16 -3.64787e-15)
(7.05759e-06 5.31578e-15 2.18163e-15)
(7.05759e-06 3.81999e-15 -5.48843e-15)
(7.05759e-06 8.44712e-15 4.51897e-15)
(7.05759e-06 1.72821e-15 -2.88617e-15)
(7.05759e-06 4.44285e-15 6.5529e-15)