/*--------------------------------*- C++ -*----------------------------------*\
| =========                 |                                                 |
| \\      /  F ield         | OpenFOAM: The Open Source CFD Toolbox           |
|  \\    /   O peration     | Version:  2412                                  |
|   \\  /    A nd           | Website:  www.openfoam.com                      |
|    \\/     M anipulation  |                                                 |
\*---------------------------------------------------------------------------*/
FoamFile
{
    version     2.0;
    format      ascii;
    arch        "LSB;label=32;scalar=64";
    class       volVectorField;
    location    "250";
    object      U;
}
// * * * * * * * * * * * * * * * * * * * * * * * * * * * * * * * * * * * * * //

dimensions      [0 1 -1 0 0 0 0];

internalField   nonuniform List<vector> 
40500
(
(1.4556e-05 1.16817e-13 2.85101e-13)
(1.4556e-05 4.80388e-14 -3.56769e-13)
(1.4556e-05 2.02993e-13 3.32938e-13)
(1.4556e-05 2.15421e-13 -1.74829e-13)
(1.4556e-05 2.66339e-13 6.38786e-14)
(1.4556e-05 3.07186e-13 4.0992e-14)
(1.4556e-05 3.36751e-13 3.89116e-14)
(1.4556e-05 3.57424e-13 5.42317e-14)
(1.4556e-05 3.68471e-13 4.69098e-14)
(1.4556e-05 3.68603e-13 4.52092e-14)
(1.4556e-05 3.55935e-13 3.8555e-14)
(1.4556e-05 3.29976e-13 2.96455e-14)
(1.4556e-05 2.91917e-13 2.31015e-14)
(1.4556e-05 2.43409e-13 1.86853e-14)
(1.4556e-05 1.85948e-13 1.51276e-14)
(1.4556e-05 1.23339e-13 1.29338e-14)
(1.4556e-05 5.79913e-14 9.83424e-15)
(1.4556e-05 -5.05338e-15 8.7136e-15)
(1.4556e-05 -6.15889e-14 9.87672e-15)
(1.4556e-05 -1.08136e-13 1.25197e-14)
(1.4556e-05 -1.45161e-13 1.42351e-14)
(1.4556e-05 -1.72331e-13 1.36297e-14)
(1.4556e-05 -1.9081e-13 9.20041e-15)
(1.4556e-05 -2.00723e-13 2.44367e-15)
(1.4556e-05 -2.04019e-13 -5.55145e-15)
(1.4556e-05 -2.01874e-13 -1.25187e-14)
(1.4556e-05 -1.95544e-13 -1.76838e-14)
(1.4556e-05 -1.86081e-13 -1.97994e-14)
(1.4556e-05 -1.75129e-13 -1.99709e-14)
(1.4556e-05 -1.6377e-13 -1.81112e-14)
(1.4556e-05 -1.53434e-13 -1.59426e-14)
(1.4556e-05 -1.43715e-13 -1.2885e-14)
(1.4556e-05 -1.35877e-13 -1.01484e-14)
(1.4556e-05 -1.29321e-13 -6.69254e-15)
(1.4556e-05 -1.24396e-13 -3.77688e-15)
(1.4556e-05 -1.19982e-13 -5.64625e-16)
(1.4556e-05 -1.16439e-13 1.80897e-15)
(1.4556e-05 -1.1316e-13 4.5821e-15)
(1.4556e-05 -1.10282e-13 6.93271e-15)
(1.4556e-05 -1.07892e-13 9.46836e-15)
(1.4556e-05 -1.06577e-13 1.1221e-14)
(1.4556e-05 -1.05802e-13 1.21468e-14)
(1.4556e-05 -1.06795e-13 1.13006e-14)
(1.4556e-05 -1.10241e-13 9.24637e-15)
(1.4556e-05 -1.17262e-13 5.0864e-15)
(1.4556e-05 -1.28379e-13 -1.86131e-16)
(1.4556e-05 -1.43912e-13 -8.62046e-15)
(1.4556e-05 -1.61294e-13 -1.90457e-14)
(1.4556e-05 -1.82199e-13 -3.2903e-14)
(1.4556e-05 -2.03726e-13 -4.62573e-14)
(1.4556e-05 -2.21057e-13 -5.8891e-14)
(1.4556e-05 -2.32429e-13 -6.64528e-14)
(1.4556e-05 -2.35711e-13 -6.59781e-14)
(1.4556e-05 -2.2221e-13 -5.17114e-14)
(1.4556e-05 -1.86474e-13 -2.49563e-14)
(1.4556e-05 -1.29146e-13 1.02881e-14)
(1.4556e-05 -5.42527e-14 5.00156e-14)
(1.4556e-05 4.17199e-14 8.87021e-14)
(1.4556e-05 1.67129e-13 1.26708e-13)
(1.4556e-05 3.14828e-13 1.62773e-13)
(1.4556e-05 4.60802e-13 1.91495e-13)
(1.4556e-05 5.93286e-13 1.92797e-13)
(1.4556e-05 6.91984e-13 1.55096e-13)
(1.4556e-05 7.1755e-13 8.16408e-14)
(1.4556e-05 6.65021e-13 -5.905e-15)
(1.4556e-05 5.2164e-13 -1.02661e-13)
(1.4556e-05 2.75657e-13 -2.05858e-13)
(1.4556e-05 -6.63359e-14 -2.96455e-13)
(1.4556e-05 -4.95146e-13 -3.33722e-13)
(1.4556e-05 -9.55489e-13 -3.11247e-13)
(1.4556e-05 -1.42533e-12 -2.34073e-13)
(1.4556e-05 -1.86568e-12 -1.1209e-13)
(1.4556e-05 -2.28061e-12 2.20875e-14)
(1.4556e-05 -2.61178e-12 1.52926e-13)
(1.4556e-05 -2.85586e-12 2.51801e-13)
(1.4556e-05 -2.99022e-12 3.10085e-13)
(1.4556e-05 -3.03173e-12 3.16053e-13)
(1.4556e-05 -2.98617e-12 2.82586e-13)
(1.4556e-05 -2.89186e-12 2.14072e-13)
(1.4556e-05 -2.7787e-12 1.28683e-13)
(1.4556e-05 -2.67273e-12 4.09924e-14)
(1.4556e-05 -2.61434e-12 -3.81333e-14)
(1.4556e-05 -2.6014e-12 -1.12179e-13)
(1.4556e-05 -2.68985e-12 -1.93008e-13)
(1.4556e-05 -2.90972e-12 -3.17233e-13)
(1.4556e-05 -3.2737e-12 -4.82154e-13)
(1.4556e-05 -3.80702e-12 -6.61378e-13)
(1.4556e-05 -4.543e-12 -8.2008e-13)
(1.4556e-05 -5.49023e-12 -9.6047e-13)
(1.4556e-05 -6.53219e-12 -1.05083e-12)
(1.4556e-05 -7.65507e-12 -1.08104e-12)
(1.4556e-05 -8.66962e-12 -9.22802e-13)
(1.4556e-05 -9.41887e-12 -5.97165e-13)
(1.4556e-05 -9.73934e-12 -1.13709e-13)
(1.4556e-05 -9.58564e-12 4.07067e-13)
(1.4556e-05 -8.88197e-12 9.24324e-13)
(1.4556e-05 -7.67746e-12 1.26743e-12)
(1.4556e-05 -6.17401e-12 9.05646e-13)
(1.45561e-05 -4.70837e-12 5.5002e-13)
(1.45561e-05 -3.58107e-12 5.94032e-13)
(2.03504e-05 1.18795e-13 5.18414e-13)
(2.03504e-05 1.66613e-13 -6.67431e-13)
(2.03504e-05 2.42381e-13 5.03864e-13)
(2.03504e-05 3.01024e-13 -2.4433e-13)
(2.03504e-05 3.67305e-13 6.08244e-14)
(2.03504e-05 4.26271e-13 5.17657e-14)
(2.03504e-05 4.7166e-13 4.07111e-14)
(2.03504e-05 5.0633e-13 5.75127e-14)
(2.03504e-05 5.27802e-13 4.35322e-14)
(2.03504e-05 5.32761e-13 3.72543e-14)
(2.03504e-05 5.18001e-13 2.657e-14)
(2.03504e-05 4.82579e-13 1.50582e-14)
(2.03504e-05 4.2718e-13 8.25263e-15)
(2.03504e-05 3.54235e-13 5.61407e-15)
(2.03504e-05 2.66469e-13 6.0385e-15)
(2.03504e-05 1.69307e-13 8.32208e-15)
(2.03504e-05 6.77976e-14 1.05233e-14)
(2.03504e-05 -2.93434e-14 1.51979e-14)
(2.03504e-05 -1.16066e-13 2.32751e-14)
(2.03504e-05 -1.87846e-13 3.03604e-14)
(2.03504e-05 -2.42428e-13 3.52415e-14)
(2.03504e-05 -2.80346e-13 3.47942e-14)
(2.03504e-05 -3.03065e-13 2.87262e-14)
(2.03504e-05 -3.11435e-13 1.80768e-14)
(2.03504e-05 -3.09044e-13 5.99631e-15)
(2.03504e-05 -2.98933e-13 -5.42978e-15)
(2.03504e-05 -2.83633e-13 -1.46996e-14)
(2.03504e-05 -2.65146e-13 -2.01337e-14)
(2.03504e-05 -2.45943e-13 -2.15974e-14)
(2.03504e-05 -2.2765e-13 -2.02973e-14)
(2.03504e-05 -2.11683e-13 -1.73322e-14)
(2.03504e-05 -1.98659e-13 -1.38466e-14)
(2.03504e-05 -1.88869e-13 -9.92557e-15)
(2.03504e-05 -1.81383e-13 -5.66489e-15)
(2.03504e-05 -1.76037e-13 -1.0475e-15)
(2.03504e-05 -1.71894e-13 3.22863e-15)
(2.03504e-05 -1.6875e-13 7.18781e-15)
(2.03504e-05 -1.65764e-13 1.09581e-14)
(2.03504e-05 -1.62758e-13 1.4565e-14)
(2.03504e-05 -1.59445e-13 1.75187e-14)
(2.03504e-05 -1.56186e-13 1.96975e-14)
(2.03504e-05 -1.53269e-13 2.02494e-14)
(2.03504e-05 -1.52037e-13 1.84644e-14)
(2.03504e-05 -1.53044e-13 1.40322e-14)
(2.03504e-05 -1.58012e-13 7.48018e-15)
(2.03504e-05 -1.68218e-13 -1.16777e-15)
(2.03504e-05 -1.8498e-13 -1.27532e-14)
(2.03504e-05 -2.07223e-13 -2.84621e-14)
(2.03504e-05 -2.35894e-13 -4.65602e-14)
(2.03504e-05 -2.67155e-13 -6.38872e-14)
(2.03504e-05 -2.99976e-13 -7.89158e-14)
(2.03504e-05 -3.30057e-13 -8.54725e-14)
(2.03504e-05 -3.50466e-13 -7.74251e-14)
(2.03504e-05 -3.51675e-13 -5.22061e-14)
(2.03504e-05 -3.27491e-13 -1.16657e-14)
(2.03504e-05 -2.75032e-13 3.95144e-14)
(2.03504e-05 -1.88536e-13 9.85656e-14)
(2.03504e-05 -6.09114e-14 1.54372e-13)
(2.03504e-05 1.12035e-13 1.99301e-13)
(2.03504e-05 3.24519e-13 2.36296e-13)
(2.03504e-05 5.68272e-13 2.56245e-13)
(2.03504e-05 8.14486e-13 2.32502e-13)
(2.03504e-05 1.0161e-12 1.4677e-13)
(2.03504e-05 1.12221e-12 2.22902e-14)
(2.03504e-05 1.11595e-12 -1.20244e-13)
(2.03504e-05 9.63361e-13 -2.70193e-13)
(2.03504e-05 6.3922e-13 -4.16676e-13)
(2.03504e-05 1.51301e-13 -5.29381e-13)
(2.03504e-05 -4.664e-13 -5.37287e-13)
(2.03504e-05 -1.17694e-12 -4.49773e-13)
(2.03504e-05 -1.92828e-12 -2.96148e-13)
(2.03504e-05 -2.66552e-12 -8.32295e-14)
(2.03504e-05 -3.34037e-12 1.56412e-13)
(2.03504e-05 -3.8931e-12 3.75003e-13)
(2.03504e-05 -4.28513e-12 5.45833e-13)
(2.03504e-05 -4.48618e-12 6.3377e-13)
(2.03504e-05 -4.52429e-12 6.36582e-13)
(2.03504e-05 -4.41936e-12 5.59691e-13)
(2.03504e-05 -4.21456e-12 4.34781e-13)
(2.03504e-05 -3.96215e-12 2.84637e-13)
(2.03504e-05 -3.70709e-12 1.36633e-13)
(2.03504e-05 -3.49479e-12 8.64417e-17)
(2.03504e-05 -3.35532e-12 -1.34262e-13)
(2.03504e-05 -3.33525e-12 -2.90077e-13)
(2.03504e-05 -3.48771e-12 -4.94872e-13)
(2.03504e-05 -3.86325e-12 -7.50664e-13)
(2.03504e-05 -4.51881e-12 -1.00547e-12)
(2.03504e-05 -5.50262e-12 -1.21006e-12)
(2.03504e-05 -6.83846e-12 -1.32342e-12)
(2.03504e-05 -8.48842e-12 -1.36644e-12)
(2.03504e-05 -1.03649e-11 -1.25789e-12)
(2.03504e-05 -1.21883e-11 -8.55424e-13)
(2.03504e-05 -1.37136e-11 -1.72187e-13)
(2.03504e-05 -1.46515e-11 6.28806e-13)
(2.03504e-05 -1.48307e-11 1.46677e-12)
(2.03504e-05 -1.40692e-11 2.23042e-12)
(2.03504e-05 -1.23539e-11 2.64833e-12)
(2.03504e-05 -9.97754e-12 2.01483e-12)
(2.03504e-05 -7.31636e-12 1.36172e-12)
(2.03504e-05 -5.2076e-12 1.19414e-12)
(1.4556e-05 3.62835e-14 2.37856e-13)
(1.4556e-05 1.6109e-13 -3.49734e-13)
(1.4556e-05 1.0663e-13 3.125e-13)
(1.4556e-05 1.68443e-13 -1.70475e-13)
(1.4556e-05 1.95556e-13 6.55421e-14)
(1.4556e-05 2.27094e-13 3.58985e-14)
(1.4556e-05 2.53678e-13 2.62211e-14)
(1.4556e-05 2.7595e-13 3.31411e-14)
(1.4556e-05 2.92078e-13 2.00797e-14)
(1.4556e-05 2.98452e-13 1.44596e-14)
(1.4556e-05 2.93355e-13 6.40815e-15)
(1.4556e-05 2.75775e-13 -9.99687e-16)
(1.4556e-05 2.45196e-13 -4.03351e-15)
(1.4556e-05 2.02786e-13 -3.88988e-15)
(1.4556e-05 1.50431e-13 -1.23489e-15)
(1.4556e-05 9.12068e-14 3.11651e-15)
(1.4556e-05 2.93264e-14 8.09704e-15)
(1.4556e-05 -3.0189e-14 1.38665e-14)
(1.4556e-05 -8.36642e-14 2.0533e-14)
(1.4556e-05 -1.28385e-13 2.66911e-14)
(1.4556e-05 -1.61187e-13 3.06904e-14)
(1.4556e-05 -1.82282e-13 3.08497e-14)
(1.4556e-05 -1.92299e-13 2.68546e-14)
(1.4556e-05 -1.92726e-13 1.96084e-14)
(1.4556e-05 -1.8613e-13 1.0929e-14)
(1.4556e-05 -1.75227e-13 2.65558e-15)
(1.4556e-05 -1.62566e-13 -3.91251e-15)
(1.4556e-05 -1.49028e-13 -8.10115e-15)
(1.4556e-05 -1.3595e-13 -9.74399e-15)
(1.4556e-05 -1.24141e-13 -9.5596e-15)
(1.4556e-05 -1.14347e-13 -8.11922e-15)
(1.4556e-05 -1.0743e-13 -5.91777e-15)
(1.4556e-05 -1.02901e-13 -3.21947e-15)
(1.4556e-05 -1.00193e-13 -2.96204e-16)
(1.4556e-05 -9.87301e-14 2.66611e-15)
(1.4556e-05 -9.81919e-14 5.50927e-15)
(1.4556e-05 -9.79875e-14 8.23005e-15)
(1.4556e-05 -9.76106e-14 1.08025e-14)
(1.4556e-05 -9.69182e-14 1.31394e-14)
(1.4556e-05 -9.55586e-14 1.50547e-14)
(1.4556e-05 -9.28076e-14 1.62936e-14)
(1.4556e-05 -8.95828e-14 1.64584e-14)
(1.4556e-05 -8.63629e-14 1.53739e-14)
(1.4556e-05 -8.42548e-14 1.27065e-14)
(1.4556e-05 -8.37768e-14 8.32582e-15)
(1.4556e-05 -8.57021e-14 2.21021e-15)
(1.4556e-05 -9.15604e-14 -5.91403e-15)
(1.4556e-05 -1.02352e-13 -1.65222e-14)
(1.4556e-05 -1.17404e-13 -2.89857e-14)
(1.4556e-05 -1.35188e-13 -4.12992e-14)
(1.4556e-05 -1.58384e-13 -5.07158e-14)
(1.4556e-05 -1.82283e-13 -5.44693e-14)
(1.4556e-05 -2.03676e-13 -4.94012e-14)
(1.4556e-05 -2.19731e-13 -3.3304e-14)
(1.4556e-05 -2.26728e-13 -6.6786e-15)
(1.4556e-05 -2.18908e-13 2.76935e-14)
(1.4556e-05 -1.87639e-13 6.61316e-14)
(1.4556e-05 -1.25013e-13 1.02299e-13)
(1.4556e-05 -3.22728e-14 1.33476e-13)
(1.4556e-05 9.12141e-14 1.57915e-13)
(1.4556e-05 2.48863e-13 1.64837e-13)
(1.4556e-05 4.18289e-13 1.37468e-13)
(1.4556e-05 5.72367e-13 7.30124e-14)
(1.4556e-05 6.86338e-13 -1.48951e-14)
(1.4556e-05 7.3163e-13 -1.13683e-13)
(1.4556e-05 6.83367e-13 -2.12559e-13)
(1.4556e-05 5.23549e-13 -2.99484e-13)
(1.4556e-05 2.53743e-13 -3.57074e-13)
(1.4556e-05 -1.04297e-13 -3.58331e-13)
(1.4556e-05 -5.44479e-13 -2.86297e-13)
(1.4556e-05 -1.02498e-12 -1.64229e-13)
(1.4556e-05 -1.51426e-12 2.06154e-15)
(1.4556e-05 -1.96516e-12 1.80381e-13)
(1.4556e-05 -2.34303e-12 3.41186e-13)
(1.4556e-05 -2.61277e-12 4.59142e-13)
(1.4556e-05 -2.74824e-12 5.17232e-13)
(1.4556e-05 -2.75934e-12 5.12416e-13)
(1.4556e-05 -2.66952e-12 4.54448e-13)
(1.4556e-05 -2.49709e-12 3.61467e-13)
(1.4556e-05 -2.2843e-12 2.54467e-13)
(1.4556e-05 -2.05987e-12 1.50205e-13)
(1.4556e-05 -1.85534e-12 5.79189e-14)
(1.4556e-05 -1.69194e-12 -2.85698e-14)
(1.4556e-05 -1.58562e-12 -1.29411e-13)
(1.4556e-05 -1.56333e-12 -2.68169e-13)
(1.4556e-05 -1.67359e-12 -4.40574e-13)
(1.4556e-05 -1.95819e-12 -6.11848e-13)
(1.4556e-05 -2.46085e-12 -7.4618e-13)
(1.4556e-05 -3.20063e-12 -8.22711e-13)
(1.4556e-05 -4.21993e-12 -8.14259e-13)
(1.4556e-05 -5.45095e-12 -6.68466e-13)
(1.4556e-05 -6.73694e-12 -3.30406e-13)
(1.4556e-05 -7.90192e-12 1.60779e-13)
(1.4556e-05 -8.79569e-12 7.43127e-13)
(1.4556e-05 -9.20239e-12 1.32516e-12)
(1.4556e-05 -8.96916e-12 1.82329e-12)
(1.4556e-05 -8.02898e-12 2.06161e-12)
(1.4556e-05 -6.51505e-12 1.59265e-12)
(1.45561e-05 -4.66707e-12 1.13542e-12)
(1.45561e-05 -3.22681e-12 1.06224e-12)
(1.53524e-05 2.062e-13 3.10465e-13)
(1.53524e-05 1.41078e-13 -3.30773e-13)
(1.53524e-05 3.45701e-13 3.64329e-13)
(1.53524e-05 3.50118e-13 -1.39024e-13)
(1.53524e-05 4.4254e-13 9.58838e-14)
(1.53524e-05 4.93947e-13 7.0833e-14)
(1.53524e-05 5.36215e-13 6.79763e-14)
(1.53524e-05 5.66863e-13 8.2635e-14)
(1.53524e-05 5.81225e-13 7.72275e-14)
(1.53524e-05 5.84025e-13 7.86475e-14)
(1.53524e-05 5.70772e-13 7.41729e-14)
(1.53524e-05 5.41295e-13 6.5362e-14)
(1.53524e-05 4.96173e-13 5.56776e-14)
(1.53524e-05 4.3567e-13 4.46921e-14)
(1.53524e-05 3.62514e-13 3.31288e-14)
(1.53524e-05 2.79235e-13 2.13773e-14)
(1.53524e-05 1.90521e-13 1.01408e-14)
(1.53524e-05 9.93812e-14 -1.98192e-16)
(1.53524e-05 1.13037e-14 -9.93911e-15)
(1.53524e-05 -7.15074e-14 -1.54584e-14)
(1.53524e-05 -1.4263e-13 -1.9127e-14)
(1.53524e-05 -1.99057e-13 -2.19331e-14)
(1.53524e-05 -2.397e-13 -2.41619e-14)
(1.53524e-05 -2.64917e-13 -2.58003e-14)
(1.53524e-05 -2.76622e-13 -2.65315e-14)
(1.53524e-05 -2.77655e-13 -2.62936e-14)
(1.53524e-05 -2.71524e-13 -2.4958e-14)
(1.53524e-05 -2.61367e-13 -2.30418e-14)
(1.53524e-05 -2.49878e-13 -2.04916e-14)
(1.53524e-05 -2.38053e-13 -1.77338e-14)
(1.53524e-05 -2.26858e-13 -1.46591e-14)
(1.53524e-05 -2.17162e-13 -1.18325e-14)
(1.53524e-05 -2.08894e-13 -9.0379e-15)
(1.53524e-05 -2.02216e-13 -6.65129e-15)
(1.53524e-05 -1.96413e-13 -4.30028e-15)
(1.53524e-05 -1.91231e-13 -2.20722e-15)
(1.53524e-05 -1.85855e-13 1.3601e-16)
(1.53524e-05 -1.80035e-13 2.44216e-15)
(1.53524e-05 -1.73757e-13 5.1359e-15)
(1.53524e-05 -1.67143e-13 7.94389e-15)
(1.53524e-05 -1.60851e-13 1.09066e-14)
(1.53524e-05 -1.55914e-13 1.33453e-14)
(1.53524e-05 -1.53539e-13 1.4756e-14)
(1.53524e-05 -1.54826e-13 1.42481e-14)
(1.53524e-05 -1.61034e-13 1.13017e-14)
(1.53524e-05 -1.73122e-13 4.92783e-15)
(1.53524e-05 -1.91559e-13 -4.72135e-15)
(1.53524e-05 -2.15448e-13 -1.80106e-14)
(1.53524e-05 -2.41531e-13 -3.41778e-14)
(1.53524e-05 -2.7018e-13 -5.25685e-14)
(1.53524e-05 -2.96751e-13 -6.97325e-14)
(1.53524e-05 -3.15976e-13 -8.28359e-14)
(1.53524e-05 -3.15647e-13 -8.86808e-14)
(1.53524e-05 -2.95308e-13 -8.45039e-14)
(1.53524e-05 -2.48561e-13 -6.66395e-14)
(1.53524e-05 -1.69631e-13 -3.51844e-14)
(1.53524e-05 -5.30593e-14 6.32648e-15)
(1.53524e-05 1.00465e-13 5.15132e-14)
(1.53524e-05 2.85011e-13 1.03385e-13)
(1.53524e-05 4.9642e-13 1.60236e-13)
(1.53524e-05 7.18453e-13 2.1552e-13)
(1.53524e-05 9.26764e-13 2.58181e-13)
(1.53524e-05 1.08308e-12 2.77138e-13)
(1.53524e-05 1.16906e-12 2.65479e-13)
(1.53524e-05 1.15012e-12 2.23592e-13)
(1.53524e-05 9.9885e-13 1.50621e-13)
(1.53524e-05 6.91695e-13 5.50667e-14)
(1.53524e-05 2.30399e-13 -5.52738e-14)
(1.53524e-05 -3.81475e-13 -1.57803e-13)
(1.53523e-05 -1.11542e-12 -2.46235e-13)
(1.53523e-05 -1.92654e-12 -3.061e-13)
(1.53523e-05 -2.7543e-12 -3.36573e-13)
(1.53523e-05 -3.5349e-12 -3.43987e-13)
(1.53523e-05 -4.22156e-12 -3.29125e-13)
(1.53523e-05 -4.76681e-12 -3.00134e-13)
(1.53524e-05 -5.13598e-12 -2.62726e-13)
(1.53524e-05 -5.31959e-12 -2.16329e-13)
(1.53524e-05 -5.33231e-12 -1.66401e-13)
(1.53524e-05 -5.20161e-12 -1.1397e-13)
(1.53524e-05 -4.97705e-12 -6.15976e-14)
(1.53524e-05 -4.72551e-12 -1.17828e-14)
(1.53524e-05 -4.52543e-12 2.83588e-14)
(1.53524e-05 -4.45731e-12 2.89208e-14)
(1.53524e-05 -4.58987e-12 -1.98051e-14)
(1.53524e-05 -4.96896e-12 -1.2513e-13)
(1.53524e-05 -5.6244e-12 -2.85532e-13)
(1.53524e-05 -6.56392e-12 -4.85274e-13)
(1.53523e-05 -7.76393e-12 -7.11696e-13)
(1.53523e-05 -9.15993e-12 -9.62743e-13)
(1.53523e-05 -1.07597e-11 -1.24099e-12)
(1.53523e-05 -1.24461e-11 -1.49437e-12)
(1.53523e-05 -1.40416e-11 -1.64684e-12)
(1.53523e-05 -1.52427e-11 -1.65478e-12)
(1.53523e-05 -1.59223e-11 -1.50275e-12)
(1.53523e-05 -1.58835e-11 -1.24913e-12)
(1.53524e-05 -1.50377e-11 -9.38203e-13)
(1.53524e-05 -1.33765e-11 -6.74703e-13)
(1.53524e-05 -1.11049e-11 -8.77185e-13)
(1.53524e-05 -8.46064e-12 -8.60643e-13)
(1.53524e-05 -6.22213e-12 -2.50828e-13)
(2.58934e-05 3.80157e-13 6.04436e-13)
(2.58934e-05 3.43231e-13 -5.66671e-13)
(2.58934e-05 5.78436e-13 6.06922e-13)
(2.58934e-05 6.30096e-13 -1.98786e-13)
(2.58934e-05 8.04971e-13 1.57811e-13)
(2.58934e-05 9.01743e-13 1.1101e-13)
(2.58934e-05 9.82616e-13 1.08899e-13)
(2.58934e-05 1.04315e-12 1.27567e-13)
(2.58934e-05 1.07616e-12 1.18469e-13)
(2.58934e-05 1.08516e-12 1.19108e-13)
(2.58934e-05 1.06445e-12 1.1243e-13)
(2.58934e-05 1.01245e-12 9.90585e-14)
(2.58934e-05 9.28065e-13 8.4846e-14)
(2.58934e-05 8.13323e-13 6.92632e-14)
(2.58934e-05 6.71879e-13 5.21652e-14)
(2.58934e-05 5.11273e-13 3.52242e-14)
(2.58934e-05 3.38395e-13 1.81272e-14)
(2.58934e-05 1.60804e-13 3.04518e-15)
(2.58934e-05 -1.31e-14 -1.02674e-14)
(2.58934e-05 -1.70241e-13 -1.66615e-14)
(2.58934e-05 -3.03796e-13 -2.1092e-14)
(2.58934e-05 -4.07819e-13 -2.48246e-14)
(2.58934e-05 -4.80147e-13 -2.85808e-14)
(2.58934e-05 -5.22179e-13 -3.21604e-14)
(2.58934e-05 -5.38103e-13 -3.54483e-14)
(2.58934e-05 -5.34313e-13 -3.72284e-14)
(2.58934e-05 -5.17481e-13 -3.77857e-14)
(2.58934e-05 -4.94096e-13 -3.59752e-14)
(2.58934e-05 -4.68288e-13 -3.33306e-14)
(2.58934e-05 -4.43052e-13 -2.92018e-14)
(2.58934e-05 -4.2038e-13 -2.52556e-14)
(2.58934e-05 -4.01327e-13 -2.04578e-14)
(2.58934e-05 -3.85958e-13 -1.65051e-14)
(2.58934e-05 -3.73896e-13 -1.21686e-14)
(2.58934e-05 -3.6423e-13 -8.9087e-15)
(2.58934e-05 -3.55919e-13 -5.08948e-15)
(2.58934e-05 -3.47701e-13 -1.90686e-15)
(2.58934e-05 -3.38708e-13 2.24772e-15)
(2.58934e-05 -3.28586e-13 6.20289e-15)
(2.58934e-05 -3.17657e-13 1.09924e-14)
(2.58934e-05 -3.07037e-13 1.54062e-14)
(2.58934e-05 -2.98641e-13 1.95717e-14)
(2.58934e-05 -2.94292e-13 2.16218e-14)
(2.58934e-05 -2.95949e-13 2.11755e-14)
(2.58934e-05 -3.05511e-13 1.63258e-14)
(2.58934e-05 -3.24711e-13 7.06246e-15)
(2.58934e-05 -3.54248e-13 -8.6075e-15)
(2.58934e-05 -3.94939e-13 -2.92431e-14)
(2.58934e-05 -4.4382e-13 -5.60199e-14)
(2.58934e-05 -4.96636e-13 -8.4264e-14)
(2.58934e-05 -5.47844e-13 -1.11254e-13)
(2.58934e-05 -5.85613e-13 -1.30288e-13)
(2.58934e-05 -5.9931e-13 -1.41582e-13)
(2.58934e-05 -5.79287e-13 -1.35731e-13)
(2.58934e-05 -5.1277e-13 -1.08863e-13)
(2.58934e-05 -3.81722e-13 -6.01575e-14)
(2.58934e-05 -1.7482e-13 5.64309e-15)
(2.58934e-05 1.07102e-13 7.63479e-14)
(2.58934e-05 4.5529e-13 1.57338e-13)
(2.58934e-05 8.52323e-13 2.43927e-13)
(2.58934e-05 1.28291e-12 3.24315e-13)
(2.58934e-05 1.6878e-12 3.81467e-13)
(2.58934e-05 2.0337e-12 4.06824e-13)
(2.58934e-05 2.25054e-12 3.8118e-13)
(2.58934e-05 2.26867e-12 3.03811e-13)
(2.58934e-05 2.01731e-12 1.82218e-13)
(2.58934e-05 1.46325e-12 2.96831e-14)
(2.58934e-05 5.9539e-13 -1.43407e-13)
(2.58934e-05 -5.74747e-13 -2.91749e-13)
(2.58934e-05 -2.00137e-12 -4.07487e-13)
(2.58934e-05 -3.5862e-12 -4.73742e-13)
(2.58934e-05 -5.21112e-12 -4.93114e-13)
(2.58934e-05 -6.75924e-12 -4.76627e-13)
(2.58934e-05 -8.11336e-12 -4.32859e-13)
(2.58934e-05 -9.17328e-12 -3.75388e-13)
(2.58934e-05 -9.87406e-12 -3.12934e-13)
(2.58934e-05 -1.01974e-11 -2.4964e-13)
(2.58934e-05 -1.01698e-11 -1.87637e-13)
(2.58934e-05 -9.85614e-12 -1.29778e-13)
(2.58934e-05 -9.35765e-12 -7.79113e-14)
(2.58934e-05 -8.80559e-12 -3.66919e-14)
(2.58934e-05 -8.35077e-12 -1.70265e-14)
(2.58934e-05 -8.12961e-12 -3.62677e-14)
(2.58934e-05 -8.25744e-12 -1.15327e-13)
(2.58934e-05 -8.83521e-12 -2.72629e-13)
(2.58934e-05 -9.94623e-12 -5.11699e-13)
(2.58934e-05 -1.16364e-11 -8.1692e-13)
(2.58934e-05 -1.38813e-11 -1.16665e-12)
(2.58933e-05 -1.66137e-11 -1.57141e-12)
(2.58933e-05 -1.97188e-11 -1.98973e-12)
(2.58933e-05 -2.30061e-11 -2.33547e-12)
(2.58933e-05 -2.61458e-11 -2.48021e-12)
(2.58933e-05 -2.87578e-11 -2.41533e-12)
(2.58933e-05 -3.04027e-11 -2.15548e-12)
(2.58933e-05 -3.06953e-11 -1.74549e-12)
(2.58934e-05 -2.93167e-11 -1.22832e-12)
(2.58934e-05 -2.61325e-11 -7.51506e-13)
(2.58934e-05 -2.14374e-11 -9.3799e-13)
(2.58934e-05 -1.5911e-11 -8.35915e-13)
(2.58934e-05 -1.1345e-11 -1.85995e-13)
(3.16214e-05 4.12936e-13 5.63134e-13)
(3.16214e-05 4.0367e-13 -6.0884e-13)
(3.16214e-05 6.58516e-13 6.08727e-13)
(3.16214e-05 6.92432e-13 -2.83076e-13)
(3.16214e-05 9.32754e-13 1.40592e-13)
(3.16214e-05 1.04713e-12 6.95871e-14)
(3.16214e-05 1.14629e-12 6.55502e-14)
(3.16214e-05 1.22297e-12 8.61877e-14)
(3.16214e-05 1.26715e-12 6.9715e-14)
(3.16214e-05 1.28011e-12 6.92507e-14)
(3.16214e-05 1.25542e-12 6.07711e-14)
(3.16214e-05 1.19012e-12 4.73826e-14)
(3.16214e-05 1.08438e-12 3.60299e-14)
(3.16214e-05 9.40161e-13 2.52268e-14)
(3.16214e-05 7.64396e-13 1.64492e-14)
(3.16214e-05 5.65038e-13 7.97112e-15)
(3.16214e-05 3.52347e-13 1.45819e-15)
(3.16214e-05 1.37337e-13 -2.47313e-15)
(3.16214e-05 -6.88434e-14 -1.9179e-15)
(3.16214e-05 -2.53471e-13 1.81238e-15)
(3.16214e-05 -4.07178e-13 6.39874e-15)
(3.16214e-05 -5.23763e-13 8.89882e-15)
(3.16214e-05 -6.02415e-13 8.40556e-15)
(3.16214e-05 -6.46221e-13 4.67677e-15)
(3.16214e-05 -6.60178e-13 -4.41855e-16)
(3.16214e-05 -6.51432e-13 -6.12078e-15)
(3.16214e-05 -6.27671e-13 -9.71429e-15)
(3.16214e-05 -5.96001e-13 -1.15726e-14)
(3.16214e-05 -5.61684e-13 -1.04403e-14)
(3.16214e-05 -5.28756e-13 -8.48331e-15)
(3.16214e-05 -4.99576e-13 -4.60566e-15)
(3.16214e-05 -4.74646e-13 -1.0739e-15)
(3.16214e-05 -4.54099e-13 3.53273e-15)
(3.16214e-05 -4.37798e-13 7.19461e-15)
(3.16214e-05 -4.25005e-13 1.16417e-14)
(3.16214e-05 -4.14388e-13 1.51292e-14)
(3.16214e-05 -4.04499e-13 1.94649e-14)
(3.16214e-05 -3.9409e-13 2.31952e-14)
(3.16214e-05 -3.8266e-13 2.78696e-14)
(3.16214e-05 -3.70712e-13 3.21688e-14)
(3.16214e-05 -3.59602e-13 3.70409e-14)
(3.16214e-05 -3.5269e-13 4.09239e-14)
(3.16214e-05 -3.51318e-13 4.34598e-14)
(3.16214e-05 -3.56898e-13 4.25373e-14)
(3.16214e-05 -3.72145e-13 3.82068e-14)
(3.16214e-05 -3.99511e-13 2.7626e-14)
(3.16214e-05 -4.3851e-13 1.158e-14)
(3.16214e-05 -4.90413e-13 -1.17748e-14)
(3.16214e-05 -5.52574e-13 -3.86021e-14)
(3.16214e-05 -6.18295e-13 -6.91524e-14)
(3.16214e-05 -6.7752e-13 -9.61141e-14)
(3.16214e-05 -7.21897e-13 -1.18296e-13)
(3.16214e-05 -7.43983e-13 -1.27688e-13)
(3.16214e-05 -7.22749e-13 -1.1929e-13)
(3.16214e-05 -6.40495e-13 -8.74342e-14)
(3.16214e-05 -4.80322e-13 -3.78224e-14)
(3.16214e-05 -2.33735e-13 2.21423e-14)
(3.16214e-05 1.07923e-13 8.79565e-14)
(3.16214e-05 5.33909e-13 1.59651e-13)
(3.16214e-05 1.01635e-12 2.362e-13)
(3.16214e-05 1.52093e-12 2.97323e-13)
(3.16214e-05 2.01904e-12 3.34171e-13)
(3.16214e-05 2.44743e-12 3.19544e-13)
(3.16214e-05 2.7006e-12 2.51745e-13)
(3.16214e-05 2.68893e-12 1.40262e-13)
(3.16214e-05 2.35907e-12 2.81632e-15)
(3.16214e-05 1.67855e-12 -1.42514e-13)
(3.16214e-05 6.19332e-13 -2.77764e-13)
(3.16214e-05 -8.10938e-13 -3.64174e-13)
(3.16214e-05 -2.51852e-12 -3.74561e-13)
(3.16214e-05 -4.40041e-12 -3.08267e-13)
(3.16214e-05 -6.31592e-12 -1.80355e-13)
(3.16214e-05 -8.11996e-12 -1.34178e-14)
(3.16214e-05 -9.67498e-12 1.61901e-13)
(3.16214e-05 -1.08532e-11 3.22192e-13)
(3.16214e-05 -1.1596e-11 4.46099e-13)
(3.16214e-05 -1.18888e-11 5.2868e-13)
(3.16214e-05 -1.17776e-11 5.68711e-13)
(3.16214e-05 -1.13448e-11 5.7513e-13)
(3.16214e-05 -1.07143e-11 5.57177e-13)
(3.16214e-05 -1.00475e-11 5.24243e-13)
(3.16214e-05 -9.52985e-12 4.84941e-13)
(3.16214e-05 -9.31635e-12 4.25503e-13)
(3.16214e-05 -9.47857e-12 3.25866e-13)
(3.16214e-05 -1.01563e-11 1.65795e-13)
(3.16214e-05 -1.14547e-11 -5.31776e-14)
(3.16214e-05 -1.34391e-11 -2.98652e-13)
(3.16214e-05 -1.61209e-11 -5.63545e-13)
(3.16214e-05 -1.94147e-11 -8.2442e-13)
(3.16214e-05 -2.31458e-11 -1.0891e-12)
(3.16214e-05 -2.7097e-11 -1.22858e-12)
(3.16214e-05 -3.0844e-11 -1.15908e-12)
(3.16214e-05 -3.39523e-11 -8.10996e-13)
(3.16214e-05 -3.59195e-11 -2.59582e-13)
(3.16214e-05 -3.62736e-11 3.70694e-13)
(3.16214e-05 -3.45936e-11 9.8138e-13)
(3.16214e-05 -3.07108e-11 1.35019e-12)
(3.16215e-05 -2.50254e-11 8.20877e-13)
(3.16215e-05 -1.83873e-11 4.98754e-13)
(3.16215e-05 -1.29524e-11 6.11603e-13)
(3.84477e-05 4.83912e-13 6.36648e-13)
(3.84477e-05 6.41403e-14 -6.44175e-13)
(3.84477e-05 8.02691e-13 6.31905e-13)
(3.84477e-05 5.52787e-13 -3.54567e-13)
(3.84477e-05 9.07609e-13 9.62794e-14)
(3.84477e-05 1.03345e-12 -1.35047e-15)
(3.84477e-05 1.14182e-12 -1.17295e-14)
(3.84477e-05 1.23668e-12 2.29665e-15)
(3.84477e-05 1.28451e-12 -2.1365e-14)
(3.84477e-05 1.30003e-12 -2.47161e-14)
(3.84477e-05 1.27172e-12 -3.22135e-14)
(3.84477e-05 1.19704e-12 -4.01448e-14)
(3.84477e-05 1.07987e-12 -4.20736e-14)
(3.84477e-05 9.22994e-13 -3.86304e-14)
(3.84477e-05 7.34288e-13 -3.18089e-14)
(3.84477e-05 5.22437e-13 -2.16056e-14)
(3.84477e-05 2.99159e-13 -1.01724e-14)
(3.84477e-05 7.72192e-14 4.11707e-15)
(3.84477e-05 -1.30073e-13 2.10559e-14)
(3.84477e-05 -3.12869e-13 3.97141e-14)
(3.84477e-05 -4.62371e-13 5.57337e-14)
(3.84477e-05 -5.74278e-13 6.581e-14)
(3.84477e-05 -6.48579e-13 6.87093e-14)
(3.84477e-05 -6.88379e-13 6.59628e-14)
(3.84477e-05 -6.99676e-13 5.88747e-14)
(3.84477e-05 -6.8897e-13 5.03326e-14)
(3.84477e-05 -6.64034e-13 4.26026e-14)
(3.84477e-05 -6.29876e-13 3.76212e-14)
(3.84477e-05 -5.92869e-13 3.51127e-14)
(3.84477e-05 -5.56223e-13 3.51312e-14)
(3.84477e-05 -5.23355e-13 3.63416e-14)
(3.84477e-05 -4.94292e-13 3.85489e-14)
(3.84477e-05 -4.71064e-13 4.04824e-14)
(3.84477e-05 -4.52258e-13 4.3185e-14)
(3.84477e-05 -4.37774e-13 4.57889e-14)
(3.84477e-05 -4.25597e-13 4.88518e-14)
(3.84477e-05 -4.15119e-13 5.17564e-14)
(3.84477e-05 -4.04217e-13 5.54102e-14)
(3.84477e-05 -3.93522e-13 5.92279e-14)
(3.84477e-05 -3.8248e-13 6.38139e-14)
(3.84477e-05 -3.72806e-13 6.87081e-14)
(3.84477e-05 -3.66371e-13 7.42071e-14)
(3.84477e-05 -3.66502e-13 7.87702e-14)
(3.84477e-05 -3.75462e-13 8.12526e-14)
(3.84477e-05 -3.9615e-13 7.99745e-14)
(3.84477e-05 -4.29781e-13 7.43209e-14)
(3.84477e-05 -4.7752e-13 6.1528e-14)
(3.84477e-05 -5.36572e-13 4.21885e-14)
(3.84477e-05 -6.05236e-13 1.58741e-14)
(3.84477e-05 -6.77279e-13 -1.33349e-14)
(3.84477e-05 -7.41969e-13 -4.3763e-14)
(3.84477e-05 -7.89675e-13 -6.91376e-14)
(3.84477e-05 -8.07266e-13 -8.45657e-14)
(3.84477e-05 -7.76002e-13 -8.26282e-14)
(3.84477e-05 -6.78257e-13 -6.20962e-14)
(3.84477e-05 -5.02654e-13 -2.63e-14)
(3.84477e-05 -2.43648e-13 1.67044e-14)
(3.84477e-05 1.08734e-13 6.02927e-14)
(3.84477e-05 5.50994e-13 1.07434e-13)
(3.84477e-05 1.05719e-12 1.55637e-13)
(3.84477e-05 1.58297e-12 1.94215e-13)
(3.84477e-05 2.0951e-12 1.96171e-13)
(3.84477e-05 2.49621e-12 1.48336e-13)
(3.84477e-05 2.70274e-12 5.79078e-14)
(3.84477e-05 2.63303e-12 -5.1879e-14)
(3.84477e-05 2.24005e-12 -1.63981e-13)
(3.84477e-05 1.48403e-12 -2.60722e-13)
(3.84477e-05 3.50634e-13 -3.10104e-13)
(3.84477e-05 -1.13755e-12 -2.70555e-13)
(3.84477e-05 -2.8702e-12 -1.26251e-13)
(3.84477e-05 -4.74241e-12 1.13669e-13)
(3.84477e-05 -6.61743e-12 4.24275e-13)
(3.84477e-05 -8.35222e-12 7.57889e-13)
(3.84477e-05 -9.81868e-12 1.07326e-12)
(3.84477e-05 -1.09092e-11 1.32169e-12)
(3.84477e-05 -1.15719e-11 1.48703e-12)
(3.84477e-05 -1.18021e-11 1.55908e-12)
(3.84477e-05 -1.1648e-11 1.55489e-12)
(3.84477e-05 -1.12024e-11 1.49229e-12)
(3.84477e-05 -1.05939e-11 1.39951e-12)
(3.84477e-05 -9.97105e-12 1.30787e-12)
(3.84477e-05 -9.49356e-12 1.24797e-12)
(3.84477e-05 -9.31272e-12 1.2267e-12)
(3.84477e-05 -9.54042e-12 1.18782e-12)
(3.84477e-05 -1.0273e-11 1.11292e-12)
(3.84477e-05 -1.161e-11 1.00881e-12)
(3.84477e-05 -1.36242e-11 8.99374e-13)
(3.84477e-05 -1.63538e-11 8.2411e-13)
(3.84477e-05 -1.9725e-11 7.74158e-13)
(3.84477e-05 -2.35702e-11 7.69991e-13)
(3.84477e-05 -2.7659e-11 8.88661e-13)
(3.84477e-05 -3.14759e-11 1.23737e-12)
(3.84477e-05 -3.45191e-11 1.82443e-12)
(3.84477e-05 -3.63107e-11 2.56747e-12)
(3.84477e-05 -3.64e-11 3.28888e-12)
(3.84477e-05 -3.44231e-11 3.82775e-12)
(3.84477e-05 -3.03402e-11 3.92067e-12)
(3.84477e-05 -2.47351e-11 2.88569e-12)
(3.84477e-05 -1.8125e-11 1.93161e-12)
(3.84477e-05 -1.26505e-11 1.36897e-12)
(5.72847e-05 7.6431e-13 1.2804e-12)
(5.72847e-05 -1.36345e-13 -1.06798e-12)
(5.72847e-05 1.07292e-12 1.2889e-12)
(5.72847e-05 6.8014e-13 -4.3983e-13)
(5.72847e-05 1.03828e-12 2.37552e-13)
(5.72847e-05 1.21651e-12 1.51636e-13)
(5.72847e-05 1.33621e-12 9.71497e-14)
(5.72847e-05 1.44707e-12 1.25842e-13)
(5.72847e-05 1.50082e-12 9.79248e-14)
(5.72847e-05 1.51463e-12 9.44369e-14)
(5.72847e-05 1.47524e-12 8.5255e-14)
(5.72847e-05 1.37949e-12 7.11965e-14)
(5.72847e-05 1.23198e-12 6.24831e-14)
(5.72847e-05 1.0384e-12 5.58181e-14)
(5.72847e-05 8.05995e-13 4.90152e-14)
(5.72847e-05 5.48103e-13 4.253e-14)
(5.72847e-05 2.78197e-13 3.45827e-14)
(5.72847e-05 1.40835e-14 2.78768e-14)
(5.72847e-05 -2.29211e-13 2.47943e-14)
(5.72847e-05 -4.38137e-13 2.70842e-14)
(5.72847e-05 -6.05656e-13 3.08864e-14)
(5.72847e-05 -7.28833e-13 3.36037e-14)
(5.72847e-05 -8.07852e-13 3.24419e-14)
(5.72847e-05 -8.46638e-13 2.84642e-14)
(5.72847e-05 -8.53032e-13 2.27354e-14)
(5.72847e-05 -8.36005e-13 1.79816e-14)
(5.72847e-05 -8.03795e-13 1.58136e-14)
(5.72847e-05 -7.61683e-13 1.73652e-14)
(5.72847e-05 -7.15436e-13 2.12212e-14)
(5.72847e-05 -6.69791e-13 2.67755e-14)
(5.72847e-05 -6.27888e-13 3.18661e-14)
(5.72847e-05 -5.91907e-13 3.65847e-14)
(5.72847e-05 -5.63367e-13 3.97042e-14)
(5.72847e-05 -5.40962e-13 4.24708e-14)
(5.72847e-05 -5.23424e-13 4.40827e-14)
(5.72847e-05 -5.09058e-13 4.6012e-14)
(5.72847e-05 -4.96702e-13 4.80606e-14)
(5.72847e-05 -4.85323e-13 5.17725e-14)
(5.72847e-05 -4.74491e-13 5.7001e-14)
(5.72847e-05 -4.63997e-13 6.49277e-14)
(5.72847e-05 -4.54406e-13 7.48055e-14)
(5.72847e-05 -4.46244e-13 8.64266e-14)
(5.72847e-05 -4.43933e-13 9.80575e-14)
(5.72847e-05 -4.52519e-13 1.0851e-13)
(5.72847e-05 -4.74971e-13 1.147e-13)
(5.72847e-05 -5.13658e-13 1.13688e-13)
(5.72847e-05 -5.70199e-13 1.00417e-13)
(5.72847e-05 -6.4219e-13 7.41925e-14)
(5.72847e-05 -7.26927e-13 3.32355e-14)
(5.72847e-05 -8.16313e-13 -1.82094e-14)
(5.72847e-05 -8.99869e-13 -7.83276e-14)
(5.72847e-05 -9.61299e-13 -1.38029e-13)
(5.72847e-05 -9.87855e-13 -1.91345e-13)