/*--------------------------------*- C++ -*----------------------------------*\
| =========                 |                                                 |
| \\      /  F ield         | OpenFOAM: The Open Source CFD Toolbox           |
|  \\    /   O peration     | Version:  2412                                  |
|   \\  /    A nd           | Website:  www.openfoam.com                      |
|    \\/     M anipulation  |                                                 |
\*---------------------------------------------------------------------------*/
FoamFile
{
    version     2.0;
    format      ascii;
    arch        "LSB;label=32;scalar=64";
    class       volScalarField;
    location    "50";
    object      p;
}
// * * * * * * * * * * * * * * * * * * * * * * * * * * * * * * * * * * * * * //

dimensions      [0 2 -2 0 0 0 0];

internalField   nonuniform List<scalar> 
283461
(
0.000944515
0.000944515
0.000944539
0.000944575
0.000944615
0.000944654
0.000111018
0.000137305
0.000144054
0.000144168
0.000141599
0.000137648
0.000132931
0.00012784
0.000122512
0.000116996
0.00011139
0.000105712
0.000100047
9.44168e-05
8.87488e-05
8.29756e-05
7.72059e-05
7.16346e-05
6.63101e-05
6.12747e-05
5.65466e-05
5.21699e-05
4.81243e-05
4.4386e-05
4.09218e-05
3.77042e-05
3.47154e-05
3.19379e-05
2.93614e-05
2.69826e-05
2.47898e-05
2.27694e-05
2.09091e-05
1.9199e-05
1.76314e-05
1.62e-05
1.48994e-05
1.37254e-05
1.26737e-05
1.17408e-05
1.09234e-05
1.02181e-05
9.61939e-06
9.11616e-06
8.67583e-06
8.23269e-06
7.60354e-06
6.43373e-06
2.43075e-08
0.000944496
0.000944503
0.000944511
0.000944535
0.000944575
0.000944627
0.000944695
0.0009448
0.000944854
0.000944891
0.000944907
0.000944869
0.000944861
0.000945032
0.00094528
0.000945865
0.000252154
0.00024507
0.000228611
0.000167189
0.000159681
0.000154451
0.00014942
0.000144397
0.000139226
0.000133863
0.000128445
0.000122948
0.000117312
0.000111632
0.000105896
0.000100128
9.4343e-05
8.85599e-05
8.28103e-05
7.71354e-05
7.1592e-05
6.62628e-05
6.12129e-05
5.64668e-05
5.20791e-05
4.80297e-05
4.42911e-05
4.0827e-05
3.76089e-05
3.46182e-05
3.18367e-05
2.92555e-05
2.68753e-05
2.46835e-05
2.26649e-05
2.08063e-05
1.90972e-05
1.75296e-05
1.60971e-05
1.47938e-05
1.36148e-05
1.2555e-05
1.16088e-05
1.07701e-05
1.00305e-05
9.37617e-06
8.78081e-06
8.18822e-06
7.49162e-06
6.4852e-06
4.74823e-06
-7.92862e-09
0.000944493
0.000944494
0.0009445
0.000944521
0.000944559
0.000944606
0.000944663
0.000944738
0.000944791
0.000944821
0.000944837
0.000944816
0.000944826
0.000944956
0.000945169
0.000945619
0.000944729
0.000943911
0.000944459
0.000946106
0.000937114
0.000938461
0.000939018
0.000941573
0.000286928
0.000260706
0.000240524
0.000219956
0.000185134
0.000172287
0.000162576
0.000154658
0.00014772
0.000141275
0.000135231
0.000129396
0.000123518
0.00011762
0.000111793
0.000105988
0.000100166
9.43429e-05
8.85371e-05
8.27746e-05
7.70879e-05
7.15297e-05
6.61857e-05
6.1105e-05
5.63203e-05
5.1912e-05
4.78538e-05
4.41135e-05
4.06487e-05
3.74293e-05
3.44359e-05
3.16461e-05
2.90547e-05
2.66718e-05
2.44818e-05
2.24663e-05
2.06103e-05
1.89023e-05
1.7334e-05
1.58993e-05
1.45913e-05
1.34045e-05
1.23322e-05
1.13672e-05
1.04999e-05
9.7169e-06
8.99666e-06
8.30241e-06
7.56778e-06
6.6833e-06
5.47531e-06
3.64561e-06
7.74395e-08
0.000944489
0.000944482
0.00094448
0.000944495
0.000944528
0.00094457
0.000944617
0.000944671
0.000944711
0.000944734
0.000944743
0.000944728
0.000944723
0.000944771
0.000944804
0.000944877
0.000944304
0.000943753
0.000943745
0.000944143
0.000942127
0.000939614
0.000939182
0.000938756
0.000939498
0.000937099
0.000934132
0.000931897
0.000928464
0.000925338
0.000924413
0.000921249
0.000925132
0.000843767
0.000858133
0.000349475
0.00032251
0.000291044
0.000251874
0.000227386
0.000200234
0.00018368
0.00017078
0.000160372
0.000151587
0.000143854
0.000136883
0.000130317
0.000123997
0.000117958
0.000112046
0.000106142
0.000100222
9.43193e-05
8.8473e-05
8.27105e-05
7.70234e-05
7.14572e-05
6.61017e-05
6.09652e-05
5.61116e-05
5.16662e-05
4.75901e-05
4.38434e-05
4.03757e-05
3.71546e-05
3.41591e-05
3.13564e-05
2.87482e-05
2.63618e-05
2.41755e-05
2.21645e-05
2.03119e-05
1.86051e-05
1.70356e-05
1.55976e-05
1.42832e-05
1.30865e-05
1.19994e-05
1.10132e-05
1.01159e-05
9.29097e-06
8.51333e-06
7.74372e-06
6.92e-06
5.95113e-06
4.71159e-06
3.01132e-06
3.60909e-07
0.000944463
0.000944443
0.00094445
0.000944484
0.000944525
0.000944568
0.000944611
0.000944643
0.00094466
0.000944662
0.000944645
0.000944619
0.000944598
0.000944546
0.00094447
0.000944064
0.000943623
0.00094338
0.000943183
0.000941816
0.000940157
0.000939289
0.000938455
0.000938087
0.000936203
0.000933577
0.000931062
0.00092764
0.000923739
0.00092033
0.000914852
0.000911053
0.000895308
0.000876788
0.000856497
0.000853182
0.000844236
0.000868472
0.000421216
0.000393359
0.000362189
0.000324716
0.000276116
0.000245589
0.000217154
0.000195827
0.000179383
0.00016635
0.000155655
0.000146524
0.000138438
0.000131171
0.000124481
0.000118207
0.000112214
0.000106233
0.000100219
9.42353e-05
8.8356e-05
8.26185e-05
7.69564e-05
7.14035e-05
6.60485e-05
6.08247e-05
5.58673e-05
5.13563e-05
4.72426e-05
4.34773e-05
4.00008e-05
3.67784e-05
3.37865e-05
3.09674e-05
2.83366e-05
2.59486e-05
2.37693e-05
2.17643e-05
1.99162e-05
1.82112e-05
1.66403e-05
1.51992e-05
1.38784e-05
1.26719e-05
1.15714e-05
1.05671e-05
9.64569e-06
8.7897e-06
7.97365e-06
7.15956e-06
6.29591e-06
5.30977e-06
4.12058e-06
2.63076e-06
6.56606e-07
0.000944367
0.000944367
0.00094442
0.000944471
0.000944519
0.000944561
0.000944591
0.000944605
0.000944601
0.000944574
0.000944526
0.000944459
0.00094435
0.000944186
0.000943848
0.000943437
0.000943032
0.000942539
0.000941541
0.000940333
0.000939304
0.000938207
0.000937141
0.000935374
0.000933056
0.000930464
0.000927102
0.000923075
0.000918801
0.000912593
0.000905781
0.000892633
0.000875431
0.000856288
0.000840268
0.000815916
0.000794104
0.000711454
0.000570878
0.000486162
0.000419628
0.000361863
0.000304565
0.000267623
0.000234995
0.000208505
0.000188158
0.000172414
0.000159764
0.000149134
0.000139842
0.000131798
0.000124682
0.000118176
0.000112214
0.000106218
0.000100114
9.40429e-05
8.81454e-05
8.24808e-05
7.68792e-05
7.13451e-05
6.59746e-05
6.0655e-05
5.55886e-05
5.09689e-05
4.67928e-05
4.29945e-05
3.95023e-05
3.62819e-05
3.3311e-05
3.0477e-05
2.78209e-05
2.54357e-05
2.32674e-05
2.12686e-05
1.94254e-05
1.77231e-05
1.61508e-05
1.47077e-05
1.33811e-05
1.21671e-05
1.10572e-05
1.0042e-05
9.10738e-06
8.23656e-06
7.4067e-06
6.58e-06
5.7224e-06
4.77204e-06
3.67842e-06
2.41272e-06
9.10528e-07
0.000944208
0.000944317
0.000944403
0.000944469
0.000944521
0.000944557
0.000944574
0.000944568
0.000944533
0.000944468
0.000944371
0.000944224
0.000944015
0.000943689
0.00094328
0.000942806
0.000942214
0.000941346
0.000940302
0.000939217
0.000938003
0.000936653
0.000934853
0.000932584
0.000929886
0.000926488
0.000922298
0.000917355
0.000910786
0.000902688
0.000890773
0.000875646
0.000856729
0.000835624
0.000808376
0.000773929
0.000706042
0.000607129
0.000525756
0.000455191
0.000391717
0.000331409
0.000288715
0.000251817
0.000221077
0.000196731
0.00017846
0.000163971
0.000151712
0.000140908
0.000131917
0.00012433
0.000117542
0.000111838
0.000105975
9.9815e-05
9.36601e-05
8.78072e-05
8.23297e-05
7.68905e-05
7.13781e-05
6.58864e-05
6.04671e-05
5.53435e-05
5.05547e-05
4.62737e-05
4.24084e-05
3.8872e-05
3.56398e-05
3.27067e-05
2.98679e-05
2.71973e-05
2.48253e-05
2.26735e-05
2.06798e-05
1.88414e-05
1.71428e-05
1.55691e-05
1.4126e-05
1.2795e-05
1.15767e-05
1.04644e-05
9.44739e-06
8.51534e-06
7.64914e-06
6.83136e-06
6.02705e-06
5.20535e-06
4.3244e-06
3.35113e-06
2.30275e-06
1.15817e-06
0.000944064
0.000944173
0.000944314
0.000944414
0.00094449
0.000944542
0.000944569
0.000944566
0.000944529
0.000944453
0.000944336
0.000944165
0.000943929
0.0009436
0.000943183
0.000942676
0.000942048
0.00094123
0.00094025
0.000939148
0.000937879
0.000936408
0.000934576
0.000932309
0.000929564
0.000926158
0.000921935
0.000916769
0.000910123
0.000901695
0.000890288
0.000875646
0.000856555
0.00083322
0.000803505
0.000765164
0.000708842
0.00063143
0.000557737
0.000487544
0.000423173
0.000362944
0.00031484
0.00027154
0.000234792
0.000205297
0.00018476
0.000168479
0.000154361
0.00014147
0.000131286
0.000123334
0.000116266
0.000111147
0.000105543
9.93321e-05
9.30524e-05
8.72743e-05
8.21195e-05
7.69562e-05
7.14583e-05
6.58058e-05
6.02599e-05
5.50339e-05
5.00355e-05
4.56156e-05
4.16641e-05
3.80547e-05
3.47931e-05
3.19243e-05
2.9112e-05
2.64682e-05
2.41285e-05
2.19954e-05
1.99981e-05
1.81605e-05
1.64656e-05
1.48917e-05
1.34522e-05
1.21151e-05
1.0891e-05
9.79447e-06
8.79848e-06
7.88143e-06
7.04075e-06
6.25527e-06
5.49713e-06
4.73833e-06
3.94679e-06
3.1001e-06
2.223e-06
1.39733e-06
0.0009439
0.00094417
0.000944338
0.000944457
0.000944539
0.000944586
0.000944594
0.000944561
0.000944481
0.000944353
0.000944168
0.000943915
0.000943579
0.000943155
0.000942633
0.000941993
0.000941199
0.00094025
0.000939149
0.000937862
0.000936346
0.000934504
0.000932255
0.000929524
0.000926165
0.000922012
0.000916879
0.000910366
0.000902059
0.000891125
0.000876908
0.000857756
0.000833644
0.000803063
0.000765377
0.00071547
0.000650448
0.000583457
0.000513218
0.00044827
0.00038573
0.000334768
0.000286711
0.000246274
0.000215087
0.000191876
0.000173701
0.000157207
0.000141081
0.000129323
0.000121503
0.000114386
0.000110112
0.000104711
9.83647e-05
9.19158e-05
8.64325e-05
8.18578e-05
7.71907e-05
7.17476e-05
6.60105e-05
6.04255e-05
5.48064e-05
4.93116e-05
4.47247e-05
4.07279e-05
3.70329e-05
3.37316e-05
3.09282e-05
2.81968e-05
2.56656e-05
2.33762e-05
2.12465e-05
1.92237e-05
1.7379e-05
1.56896e-05
1.41176e-05
1.26852e-05
1.13489e-05
1.0156e-05
9.08075e-06
8.09394e-06
7.21273e-06
6.42013e-06
5.68819e-06
4.99457e-06
4.3158e-06
3.62487e-06
2.9025e-06
2.19863e-06
1.58702e-06
0.000943679
0.000943955
0.000944207
0.0009444
0.000944533
0.000944616
0.000944647
0.000944625
0.000944549
0.000944417
0.000944225
0.000943964
0.000943623
0.000943195
0.000942669
0.000942029
0.000941252
0.000940327
0.00093924
0.00093796
0.000936445
0.000934624
0.000932422
0.000929756
0.000926499
0.000922493
0.00091754
0.000911308
0.000903363
0.00089302
0.00087943
0.000860575
0.00083761
0.000807315
0.000770671
0.000724
0.00066829
0.000608309
0.000534527
0.000467881
0.000402787
0.000351797
0.000301774
0.000256913
0.000224277
0.000199919
0.000181398
0.000161176
0.00014016
0.00012672
0.000118355
0.000110484
0.00010736
0.000103285
9.74491e-05
9.13416e-05
8.67414e-05
8.23964e-05
7.80977e-05
7.23875e-05
6.62282e-05
6.04972e-05
5.42538e-05
4.81163e-05
4.36947e-05
3.98227e-05
3.58886e-05
3.24872e-05
2.97736e-05
2.71264e-05
2.47452e-05
2.25459e-05
2.04051e-05
1.83392e-05
1.64832e-05
1.48059e-05
1.32463e-05
1.18344e-05
1.05091e-05
9.33535e-06
8.29399e-06
7.35895e-06
6.53436e-06
5.802e-06
5.14034e-06
4.52601e-06
3.93746e-06
3.34955e-06
2.74329e-06
2.21218e-06
1.72377e-06
0.00094349
0.000943946
0.000944289
0.000944506
0.000944647
0.000944715
0.000944714
0.00094465
0.000944522
0.000944329
0.000944066
0.000943725
0.000943298
0.000942776
0.000942145
0.000941387
0.000940486
0.000939424
0.000938172
0.000936689
0.000934918
0.000932791
0.000930228
0.000927118
0.000923311
0.000918621
0.000912758
0.00090532
0.000895734
0.000883181
0.000866056
0.000845482
0.000815151
0.000777415
0.000734975
0.00068937
0.000638221
0.000555883
0.000484556
0.000407941
0.000346378
0.000298324
0.000257811
0.000226669
0.000204067
0.000189621
0.000168319
0.00014125
0.000117339
0.000112143
0.000107888
0.000106089
0.000103052
9.65694e-05
9.00011e-05
8.64592e-05
8.28063e-05
7.94807e-05
7.32826e-05
6.62269e-05
6.04609e-05
5.32767e-05
4.66514e-05
4.31481e-05
3.90361e-05
3.45611e-05
3.10698e-05
2.84213e-05
2.58287e-05
2.36455e-05
2.15631e-05
1.94238e-05
1.73038e-05
1.54206e-05
1.37733e-05
1.22449e-05
1.08696e-05
9.58743e-06
8.46714e-06
7.46089e-06
6.59391e-06
5.84882e-06
5.19663e-06
4.62059e-06
4.09686e-06
3.6046e-06
3.11913e-06
2.62034e-06
2.21713e-06
1.86515e-06
0.000943166
0.000943499
0.000944083
0.000944439
0.000944669
0.000944789
0.000944822
0.000944777
0.00094466
0.000944472
0.000944213
0.000943877
0.000943457
0.000942946
0.00094233
0.000941595
0.000940725
0.0009397
0.000938491
0.000937062
0.000935365
0.000933339
0.000930908
0.000927975
0.0009244
0.000920007
0.000914538
0.000907626
0.000898785
0.000887116
0.000871895
0.000853928
0.000827472
0.000791197
0.000755394
0.000726548
0.000699824
0.000618877
0.000528884
0.000412978
0.000344862
0.000295842
0.000256124
0.000226822
0.00020824
0.000203881
0.000105113
0.000105834
0.000105568
0.000104707
0.000101518
9.5745e-05
9.00729e-05
8.64567e-05
8.25116e-05
7.87636e-05
7.23604e-05
6.55931e-05
6.09492e-05
5.39896e-05
4.70226e-05
4.296e-05
3.79823e-05
3.3032e-05
2.95535e-05
2.68264e-05
2.43699e-05
2.24768e-05
2.04587e-05
1.82136e-05
1.5976e-05
1.4109e-05
1.25704e-05
1.11319e-05
9.82279e-06
8.56562e-06
7.51418e-06
6.60272e-06
5.82915e-06
5.18044e-06
4.62256e-06
4.14245e-06
3.71536e-06
3.32078e-06
2.93484e-06
2.53762e-06
2.24285e-06
2.02966e-06
0.000942352
0.000943483
0.000944239
0.000944654
0.000944859
0.00094494
0.000944923
0.000944823
0.000944647
0.000944397
0.00094407
0.000943663
0.000943167
0.000942573
0.000941868
0.000941036
0.000940057
0.000938906
0.000937548
0.000935943
0.000934038
0.000931765
0.000929037
0.000925722
0.000921658
0.000916608
0.000910235
0.000902174
0.000891421
0.000878531
0.000863812
0.000843316
0.000806982
0.000768904
0.000742543
0.00072372
0.000679942
0.00062414
0.000103508
0.000104142
0.000104759
0.000100793
9.42493e-05
8.83937e-05
8.59842e-05
8.2895e-05
8.01606e-05
7.21245e-05
6.44972e-05
6.19334e-05
5.34468e-05
4.47013e-05
4.1906e-05
3.78343e-05
3.29122e-05
2.82068e-05
2.52597e-05
2.28772e-05
2.09954e-05
1.88956e-05
1.64753e-05
1.4287e-05
1.25448e-05
1.11726e-05
9.89359e-06
8.70714e-06
7.53381e-06
6.5784e-06
5.7653e-06
5.09617e-06
4.55453e-06
4.10066e-06
3.72164e-06
3.39154e-06
3.09104e-06
2.79859e-06
2.49812e-06
2.29478e-06
2.22184e-06
0.000942869
0.00094403
0.000944659
0.000944941
0.000945069
0.000945084
0.000945005
0.000944844
0.000944608
0.000944295
0.000943905
0.000943431
0.000942865
0.000942196
0.000941409
0.000940485
0.000939402
0.000938129
0.000936631
0.000934862
0.000932762
0.000930258
0.000927217
0.000923485
0.000918834
0.000912924
0.000905595
0.000895732
0.000884205
0.000870829
0.000852235
0.000818378
0.000780395
0.00075862
0.000738121
0.000715658
0.000103022
0.000102912
9.97736e-05
9.48695e-05
9.02216e-05
8.64441e-05
8.23154e-05
7.80555e-05
7.18895e-05
6.55153e-05
6.04749e-05
5.31556e-05
4.53951e-05
4.18835e-05
3.75136e-05
3.18489e-05
2.64146e-05
2.24212e-05
2.058e-05
1.92095e-05
1.72463e-05
1.47782e-05
1.2634e-05
1.08818e-05
9.72575e-06
8.64689e-06
7.57134e-06
6.49372e-06
5.64465e-06
4.95025e-06
4.4121e-06
3.99322e-06
3.65207e-06
3.37427e-06
3.1353e-06
2.91919e-06
2.70736e-06
2.49428e-06
2.37887e-06
2.44779e-06
0.000943086
0.000944104
0.00094473
0.000945045
0.00094521
0.000945255
0.000945199
0.000945057
0.000944838
0.000944543
0.000944174
0.000943726
0.000943194
0.000942566
0.000941831
0.000940971
0.000939966
0.000938789
0.000937408
0.000935788
0.000933879
0.000931623
0.000928884
0.000925509
0.000921276
0.000915749
0.000909192
0.000900246
0.000889643
0.000879215
0.000859701
0.000821975
0.000781835
0.000756433
0.000750607
4.09584e-05
3.99199e-05
3.6684e-05
3.22497e-05
2.73651e-05
1.92192e-05
1.80733e-05
1.67176e-05
1.47268e-05
1.26324e-05
1.06911e-05
9.26374e-06
8.31745e-06
7.41518e-06
6.49143e-06
5.57176e-06
4.81458e-06
4.23463e-06
3.82689e-06
3.52997e-06
3.29814e-06
3.11254e-06
2.9514e-06
2.80177e-06
2.65292e-06
2.50944e-06
2.47149e-06
2.6461e-06
0.000942998
0.000943978
0.000944721
0.000945115
0.000945337
0.000945421
0.000945395
0.000945276
0.000945076
0.000944803
0.000944458
0.000944041
0.000943546
0.000942966
0.00094229
0.000941502
0.000940582
0.000939509
0.000938255
0.000936794
0.000935085
0.000933097
0.000930679
0.000927678
0.000923855
0.00091854
0.000913185
0.000906611
0.000899509
0.000894282
0.000887684
1.32599e-05
1.43585e-05
1.38837e-05
1.26044e-05
1.0879e-05
8.8363e-06
7.80488e-06
7.03538e-06
6.29952e-06
5.53913e-06
4.76362e-06
4.07944e-06
3.63609e-06
3.36336e-06
3.18196e-06
3.04656e-06
2.93522e-06
2.83286e-06
2.73096e-06
2.62604e-06
2.52356e-06
2.54335e-06
2.76275e-06
0.00094296
0.00094389
0.000944696
0.000945164
0.000945448
0.000945578
0.000945584
0.000945491
0.000945314
0.000945064
0.000944747
0.000944363
0.00094391
0.000943383
0.000942771
0.000942061
0.000941235
0.000940274
0.000939153
0.000937854
0.00093635
0.000934643
0.000932547
0.000929862
0.000926246
0.000920283
0.000916056
0.000909765
0.000906547
0.000903455
1.19553e-05
1.24205e-05
1.20535e-05
1.09477e-05
9.21187e-06
7.53366e-06
6.71198e-06
5.96646e-06
5.31876e-06
4.67346e-06
4.02435e-06
3.49711e-06
3.20318e-06
3.05044e-06
2.96336e-06
2.89808e-06
2.83734e-06
2.7742e-06
2.70387e-06
2.61895e-06
2.52594e-06
2.5789e-06
2.79994e-06
0.000942464
0.000943324
0.000944483
0.00094513
0.000945516
0.000945709
0.000945757
0.000945693
0.00094554
0.000945315
0.000945026
0.000944678
0.00094427
0.000943799
0.000943258
0.000942634
0.000941911
0.000941071
0.000940093
0.000938964
0.000937681
0.0009363
0.000934604
0.000932348
0.000928982
0.000921616
0.000917945
0.000913927
0.000910049
1.118e-05
1.12983e-05
1.08544e-05
9.81654e-06
8.11572e-06
6.77793e-06
5.8172e-06
5.01771e-06
4.43644e-06
3.901e-06
3.39332e-06
3.07952e-06
2.93417e-06
2.8797e-06
2.86083e-06
2.8412e-06
2.81458e-06
2.772e-06
2.71082e-06
2.6252e-06
2.52013e-06
2.57792e-06
2.77019e-06
0.000941749
0.000943656
0.000944894
0.000945513
0.000945804
0.000945905
0.000945873
0.000945745
0.000945544
0.000945283
0.000944971
0.000944609
0.000944198
0.000943731
0.000943201
0.000942591
0.000941885
0.000941061
0.000940107
0.00093905
0.000938018
0.000936758
0.000934952
0.000931741
0.000921795
0.000916724
0.000916496
1.07654e-05
1.07981e-05
1.01893e-05
9.15706e-06
7.29671e-06
6.0874e-06
4.88828e-06
4.15754e-06
3.66649e-06
3.28333e-06
2.96279e-06
2.82349e-06
2.79243e-06
2.81141e-06
2.84392e-06
2.85968e-06
2.84759e-06
2.80646e-06
2.73919e-06
2.6409e-06
2.51282e-06
2.55231e-06
2.6888e-06
0.000942227
0.000944447
0.00094547
0.000945875
0.000946028
0.000946025
0.000945918
0.000945739
0.000945504
0.000945226
0.000944909
0.000944557
0.000944168
0.000943733
0.000943243
0.000942678
0.000942018
0.000941238
0.000940433
0.000939808
0.000939164
0.000938242
0.000935949
1.06726e-05
1.09223e-05
9.71188e-06
7.83483e-06
5.85227e-06
5.06779e-06
4.18775e-06
3.50624e-06
3.05262e-06
2.82806e-06
2.70387e-06
2.70223e-06
2.75949e-06
2.83885e-06
2.90295e-06
2.92832e-06
2.91064e-06
2.85748e-06
2.77557e-06
2.65795e-06
2.5026e-06
2.50063e-06
2.58703e-06
0.000942543
0.000944621
0.000945588
0.000945985
0.000946143
0.000946148
0.000946052
0.000945887
0.000945674
0.000945426
0.000945152
0.000944858
0.000944545
0.000944214
0.00094386
0.000943474
0.00094304
0.000942525
0.000942139
0.000942138
0.000942492
0.000943076
7.05174e-06
6.04427e-06
4.95562e-06
4.5164e-06
3.80107e-06
3.05014e-06
2.56707e-06
2.49254e-06
2.52682e-06
2.6389e-06
2.78174e-06
2.91091e-06
2.99471e-06
3.01366e-06
2.97648e-06
2.90287e-06
2.80452e-06
2.66769e-06
2.4873e-06
2.42718e-06
2.45212e-06
0.000942599
0.000944696
0.000945664
0.000946061
0.000946218
0.000946222
0.000946129
0.000945973
0.000945776
0.000945553
0.000945314
0.000945069
0.000944823
0.00094458
0.000944344
0.000944107
0.000943844
0.000943497
0.000943329
0.000943575
0.000944222
0.000944868
6.35116e-06
5.31266e-06
4.60966e-06
4.18945e-06
3.46217e-06
2.79685e-06
2.14845e-06
2.2095e-06
2.37835e-06
2.60422e-06
2.82441e-06
2.99309e-06
3.09217e-06
3.09001e-06
3.01671e-06
2.91627e-06
2.80935e-06
2.66356e-06
2.4703e-06
2.32827e-06
2.25313e-06
0.000942315
0.000944663
0.000945697
0.000946094
0.000946241
0.000946236
0.000946138
0.000945983
0.000945795
0.000945589
0.000945377
0.000945169
0.000944972
0.000944793
0.000944638
0.000944499
0.000944342
0.000944243
0.000944139
0.000944349
0.000944882
0.000945443
0.000945824
4.76621e-06
4.28903e-06
3.67945e-06
2.98727e-06
2.42377e-06
1.78732e-06
1.98784e-06
2.27025e-06
2.58454e-06
2.86496e-06
3.06787e-06
3.18435e-06
3.13505e-06
2.9958e-06
2.86086e-06
2.77079e-06
2.64371e-06
2.47405e-06
2.20552e-06
1.972e-06
0.000941741
0.000944568
0.000945694
0.000946083
0.000946204
0.000946177
0.000946064
0.000945904
0.000945717
0.000945522
0.000945328
0.000945147
0.000944987
0.000944853
0.000944753
0.000944674
0.000944573
0.000944551
0.000944527
0.000944684
0.000945029
0.000945262
0.000945426
0.000945386
3.74097e-06
3.27817e-06
2.86081e-06
2.12204e-06
1.4191e-06
1.78104e-06
2.16647e-06
2.54953e-06
2.8818e-06
3.12097e-06
3.28232e-06
3.12782e-06
2.84647e-06
2.66562e-06
2.66222e-06
2.61831e-06
2.57676e-06
2.08347e-06
1.589e-06
0.000944095
0.000944058
0.000944596
0.000945544
0.000945961
0.000946116
0.000946126
0.00094604
0.000945896
0.000945719
0.000945528
0.000945337
0.000945157
0.000944998
0.000944868
0.000944774
0.000944721
0.000944695
0.000944664
0.000944681
0.000944723
0.000944835
0.000945038
0.000945189
0.000945286
0.000945318
2.85391e-06
2.56679e-06
1.77104e-06
1.33357e-06
1.73071e-06
2.11253e-06
2.49465e-06
2.85659e-06
3.15042e-06
3.46136e-06
2.98331e-06
2.30731e-06
2.10804e-06
2.41906e-06
2.62609e-06
3.01907e-06
2.04228e-06
1.06676e-06
0.000943857
0.000944824
0.000945421
0.000945803
0.000945968
0.000945995
0.000945923
0.000945785
0.000945608
0.000945411
0.000945211
0.000945021
0.000944852
0.000944715
0.000944616
0.000944564
0.00094456
0.000944586
0.00094462
0.000944681
0.000944766
0.000944891
0.000945034
0.000945145
0.000945219
0.000945272
1.31039e-06
1.21446e-06
1.60593e-06
1.93452e-06
2.26584e-06
2.63912e-06
3.02068e-06
3.62466e-06
2.28885e-06
1.29953e-06
1.05777e-06
1.89606e-06
2.5204e-06
3.75933e-06
1.78503e-06
4.47908e-07
0.00094428
0.000945167
0.000945593
0.000945752
0.000945783
0.000945717
0.000945579
0.000945393
0.000945181
0.000944962
0.000944749
0.000944557
0.000944398
0.000944282
0.000944219
0.000944217
0.000944272
0.000944361
0.000944473
0.000944602
0.000944729
0.000944874
0.000944972
0.000945061
0.000945169
1.15675e-06
1.50328e-06
1.78094e-06
2.04731e-06
2.4411e-06
3.02459e-06
4.58576e-06
-9.19842e-07
1.22312e-06
2.72269e-06
5.39428e-06
0.000945615
0.000945093
0.000945426
0.000945455
0.000945395
0.000945265
0.000945074
0.000944844
0.000944597
0.000944351
0.000944121
0.000943923
0.00094377
0.000943676
0.000943652
0.000943708
0.000943835
0.000944003
0.000944219
0.000944458
0.000944636
0.000944827
0.000944927
0.000944977
0.000942146
0.000944104
0.000944699
0.000944737
0.00094461
0.000944392
0.000944125
0.000943841
0.000943562
0.000943308
0.000943097
0.000942944
0.000942869
0.000942886
0.000943009
0.000943229
0.000943501
0.000943846
0.000944225
0.000944421
0.000944699
0.000944977
0.000945018
0.000942586
0.000943569
0.000944049
0.000943993
0.000943811
0.000943545
0.000943231
0.000942901
0.00094258
0.000942291
0.000942054
0.000941891
0.000941824
0.00094188
0.00094208
0.000942408
0.0009428
0.000943301
0.000943894
0.000944186
0.000944638
0.000945082
0.000945757
0.000943446
0.000943425
0.000943129
0.00094285
0.000942525
0.000942155
0.000941769
0.000941396
0.00094106
0.000940786
0.000940597
0.00094052
0.000940588
0.000940826
0.000941221
0.000941667
0.000942215
0.000942783
0.000943167
0.000943702
0.00093846
0.000941013
0.000941624
0.000941572
0.000941283
0.000940881
0.000940438
0.000940004
0.000939612
0.000939288
0.00093906
0.000938954
0.000939002
0.000939226
0.000939636
0.000940208
0.000940864
0.000941637
0.000942296
0.000943399
0.000937162
0.000939562
0.00094038
0.000940307
0.000939941
0.000939451
0.000938921
0.000938408
0.00093795
0.000937574
0.000937307
0.00093718
0.000937223
0.000937464
0.000937943
0.000938696
0.000939516
0.000940531
0.000941011
0.000938205
0.000939169
0.000939455
0.000939075
0.000938502
0.000937861
0.000937213
0.000936607
0.000936077
0.000935655
0.000935368
0.00093525
0.000935336
0.000935671
0.000936316
0.000937281
0.000938397
0.000939759
0.000939471
0.000942483
0.000939698
0.00093876
0.000937824
0.000936926
0.000936085
0.000935292
0.000934581
0.000933982
0.000933525
0.000933237
0.000933151
0.000933299
0.000933716
0.000934444
0.000935407
0.000936507
0.000937648
0.000938193
0.000935733
0.000936247
0.000935944
0.000934986
0.000934022
0.000933101
0.000932287
0.000931622
0.00093114
0.000930865
0.000930821
0.000931021
0.000931473
0.000932171
0.000933017
0.000933861
0.000935781
0.000937957
0.000941509
0.000935774
0.000934689
0.000933081
0.000931778
0.000930639
0.000929684
0.000928939
0.000928431
0.000928177
0.000928187
0.000928459
0.000928975
0.000929706
0.000930552
0.000931106
0.000933542
0.000927134
0.000930774
0.000930224
0.000929011
0.000927747
0.000926665
0.000925836
0.000925299
0.000925067
0.000925138
0.000925491
0.000926084
0.000926893
0.000928003
0.000929471
0.00093441
0.00092741
0.000929771
0.000928004
0.000926222
0.000924527
0.000923196
0.000922225
0.000921635
0.000921415
0.000921542
0.00092196
0.000922573
0.000923234
0.000923895
0.000924318
0.000935313
0.000933868
0.000926956
0.000923395
0.000920837
0.000919119
0.000917967
0.000917313
0.000917113
0.000917335
0.00091791
0.000918711
0.000919417
0.000919648
0.000919305
0.000942323
0.000925579
0.000919968
0.00091637
0.000914231
0.000912914
0.000912183
0.000912004
0.000912367
0.000913242
0.000914547
0.000915893
0.000916699
0.000915995
0.000911766
0.000904715
0.000909314
0.000909
0.000907828
0.000906747
0.000906035
0.000905873
0.000906383
0.000907685
0.000909899
0.00091266
0.000915947
0.000917183
0.000914455
0.000896955
0.000901753
0.000902335
0.000901176
0.00089986
0.0008989
0.000898521
0.000898898
0.000900233
0.000902794
0.000906004
0.000911364
0.000914281
0.000916407
0.000898651
0.000898562
0.000896787
0.000894399
0.000892303
0.000890785
0.000889934
0.000889912
0.00089108
0.000894141
0.000899293
0.000908282
0.000910326
0.000913248
0.000899935
0.00089204
0.000887323
0.000883981
0.000881684
0.000880148
0.000879357
0.000879588
0.000881501
0.000886446
0.000896056
0.000913514
0.000886941
0.000881267
0.000877755
0.000874093
0.000871415
0.000869317
0.000867587
0.000866168
0.000865038
0.000864777
0.000862275
0.000909486
0.000879159
0.000870055
0.000864039
0.000860543
0.000857893
0.000855257
0.000852116
0.000847732
0.000840982
0.000826089
0.000800967
0.000800603
0.000842686
0.000849332
0.000849075
0.000847777
0.00084599
0.000843537
0.000840258
0.000835882
0.000830039
0.000818787
0.000801229
0.000799212
0.000815622
0.000826969
0.000832782
0.000834346
0.000833862
0.000831788
0.000828204
0.000822893
0.000815511
0.000803001
0.000789742
0.000783267
0.000770583
0.000797961
0.000810606
0.000819057
0.000822181
0.00082262
0.000821023
0.000817668
0.000812586
0.000805703
0.000795579
0.000784271
0.000773037
0.00076669
0.000754312
0.000748832
0.000772311
0.000792964
0.000806143
0.000811007
0.000812246
0.000811062
0.000808028
0.000803422
0.000797395
0.000789449
0.000780035
0.000769427
0.000765572
0.000752299
0.000744723
0.000697345
0.000696341
0.000755748
0.000782984
0.000796187
0.000801492
0.000802842
0.000801603
0.000798479
0.000793809
0.000787743
0.000780079
0.000770172
0.000761719
0.000756875
0.000735097
0.000720488
0.000706573
0.0007505
0.000761324
0.000760943
0.00075234
0.000735232
0.000738051
0.000747526
0.000771636
0.000784822
0.000791635
0.00079451
0.000794633
0.000792661
0.000789021
0.000783928
0.000777475
0.000769598
0.000759437
0.000750379
0.000737763
0.000716756
0.000706449
0.000694771
0.00068283
0.000788326
0.000802342
0.000799229
0.000788632
0.000779181
0.000780128
0.000776953
0.000771576
0.000763265
0.000763824
0.000768494
0.000777789
0.000783935
0.000787189
0.000787998
0.000786805
0.000783952
0.000779679
0.000774114
0.000767311
0.000759241
0.000749296
0.000739711
0.000728243
0.000711353
0.000696475
0.000682934
0.000669816
0.000655007
0.000654024
0.000455116
0.00045531
0.000455488
0.00045554
0.00045556
0.000824839
0.000839786
0.000831386
0.00081391
0.000816526
0.000810312
0.000801074
0.000794536
0.000792046
0.000787899
0.000783404
0.000778393
0.00077651
0.000777281
0.00078028
0.000782191
0.000782635
0.000781548
0.00077904
0.000775245
0.000770273
0.000764194
0.00075705
0.000748846
0.000739199
0.000729388
0.000717664
0.000699
0.00068387
0.000670208
0.000659197
0.000652579
0.000652842
0.00045488
0.000455198
0.000455433
0.000455531
0.000455607
0.000998423
0.00101882
0.000868335
0.000887176
0.000875973
0.000853573
0.00085268
0.00084101
0.000828546
0.000825142
0.00081853
0.000811125
0.000804481
0.000799412
0.000794344
0.000789558
0.000785026
0.000782052
0.000780524
0.000780047
0.000779155
0.000777454
0.000774762
0.000771039
0.000766293
0.000760538
0.000753771
0.000745962
0.000737031
0.000726648
0.000715502
0.000702457
0.000685861
0.000669799
0.000654551
0.000645594
0.000642946
0.000647021
0.000453842
0.000454534
0.000455078
0.000455414
0.000455629
0.000455796
0.000993734
0.00098567
0.000946679
0.00090924
0.000901005
0.000884251
0.000866955
0.000859462
0.000848957
0.000838463
0.000831655
0.000824115
0.00081657
0.000809582
0.000803469
0.000797719
0.000792401
0.000787508
0.000783515
0.000780328
0.000777657
0.000774813
0.00077148
0.000767469
0.00076268
0.000757058
0.000750568
0.000743168
0.0007348
0.00072534
0.000714504
0.000702484
0.000688015
0.000671498
0.000653313
0.000639751
0.000632135
0.000627108
0.000599642
0.000543806
0.000528376
0.000529043
0.000452073
0.000453144
0.000453429
0.000454002
0.000454067
0.000454598
0.000455108
0.000455509
0.000455873
0.000456202
0.000994241
0.000976925
0.000948148
0.00092061
0.000904521
0.000888988
0.000874046
0.00086371
0.000853381
0.00084353
0.000835472
0.000827227
0.000819194
0.000811709
0.000804867
0.000798483
0.000792558
0.000787065
0.000782142
0.000777701
0.000773533
0.000769273
0.000764685
0.000759599
0.000753898
0.000747497
0.000740331
0.000732339
0.000723441
0.000713496
0.000702296
0.000689882
0.000675499
0.000660047
0.000643707
0.000629023
0.000616668
0.00060524
0.000573649
0.000538988
0.000525223
0.000522575
0.000508254
0.000498107
0.000500539
0.000455209
0.000459805
0.000460133
0.000459232
0.000457094
0.000453765
0.00045232
0.000453272
0.000453864