/*--------------------------------*- C++ -*----------------------------------*\
| =========                 |                                                 |
| \\      /  F ield         | OpenFOAM: The Open Source CFD Toolbox           |
|  \\    /   O peration     | Version:  2412                                  |
|   \\  /    A nd           | Website:  www.openfoam.com                      |
|    \\/     M anipulation  |                                                 |
\*---------------------------------------------------------------------------*/
FoamFile
{
    version     2.0;
    format      ascii;
    arch        "LSB;label=32;scalar=64";
    class       volScalarField;
    location    "50";
    object      p;
}
// * * * * * * * * * * * * * * * * * * * * * * * * * * * * * * * * * * * * * //

dimensions      [0 2 -2 0 0 0 0];

internalField   nonuniform List<scalar> 
116500
(
0.000996076
0.000987352
0.000977468
0.000967489
0.000957522
0.000947527
0.000937532
0.000927537
0.000917539
0.000907539
0.000897539
0.000887538
0.000877537
0.000867536
0.000857535
0.000847533
0.000837531
0.000827529
0.000817528
0.000807526
0.000797524
0.000787523
0.000777521
0.00076752
0.000757518
0.000747517
0.000737515
0.000727514
0.000717512
0.000707511
0.000697509
0.000687508
0.000677506
0.000667505
0.000657504
0.000647502
0.000637501
0.000627499
0.000617498
0.000607496
0.000597495
0.000587494
0.000577492
0.000567491
0.000557489
0.000547488
0.000537487
0.000527485
0.000517484
0.000507482
0.000497481
0.00048748
0.000477478
0.000467477
0.000457475
0.000447474
0.000437473
0.000427471
0.00041747
0.000407468
0.000397467
0.000387466
0.000377464
0.000367463
0.000357462
0.00034746
0.000337459
0.000327457
0.000317456
0.000307455
0.000297453
0.000287452
0.000277451
0.000267449
0.000257448
0.000247446
0.000237445
0.000227444
0.000217442
0.000207441
0.00019744
0.000187438
0.000177437
0.000167435
0.000157434
0.000147433
0.000137431
0.00012743
0.000117429
0.000107427
9.74257e-05
8.74241e-05
7.74228e-05
6.74218e-05
5.74213e-05
4.74219e-05
3.74246e-05
2.74316e-05
1.74474e-05
7.48219e-06
0.00099706
0.000987358
0.000977443
0.000967486
0.000957513
0.000947523
0.000937531
0.000927535
0.000917537
0.000907538
0.000897538
0.000887537
0.000877536
0.000867535
0.000857533
0.000847532
0.00083753
0.000827528
0.000817527
0.000807525
0.000797524
0.000787522
0.000777521
0.000767519
0.000757517
0.000747516
0.000737514
0.000727513
0.000717512
0.00070751
0.000697509
0.000687507
0.000677506
0.000667504
0.000657503
0.000647501
0.0006375
0.000627499
0.000617497
0.000607496
0.000597494
0.000587493
0.000577492
0.00056749
0.000557489
0.000547487
0.000537486
0.000527485
0.000517483
0.000507482
0.00049748
0.000487479
0.000477478
0.000467476
0.000457475
0.000447473
0.000437472
0.000427471
0.000417469
0.000407468
0.000397466
0.000387465
0.000377464
0.000367462
0.000357461
0.00034746
0.000337458
0.000327457
0.000317456
0.000307454
0.000297453
0.000287451
0.00027745
0.000267449
0.000257447
0.000247446
0.000237445
0.000227443
0.000217442
0.000207441
0.000197439
0.000187438
0.000177436
0.000167435
0.000157434
0.000147432
0.000137431
0.000127429
0.000117428
0.000107426
9.74248e-05
8.74233e-05
7.74219e-05
6.74208e-05
5.74202e-05
4.74207e-05
3.74233e-05
2.74304e-05
1.74463e-05
7.48304e-06
0.000995906
0.000987328
0.00097747
0.000967471
0.000957515
0.000947523
0.000937528
0.000927533
0.000917535
0.000907535
0.000897535
0.000887535
0.000877534
0.000867532
0.000857531
0.000847529
0.000837527
0.000827526
0.000817524
0.000807522
0.000797521
0.000787519
0.000777517
0.000767516
0.000757514
0.000747513
0.000737511
0.00072751
0.000717508
0.000707507
0.000697505
0.000687504
0.000677502
0.000667501
0.000657499
0.000647498
0.000637497
0.000627495
0.000617494
0.000607492
0.000597491
0.000587489
0.000577488
0.000567487
0.000557485
0.000547484
0.000537483
0.000527481
0.00051748
0.000507478
0.000497477
0.000487476
0.000477474
0.000467473
0.000457471
0.00044747
0.000437469
0.000427467
0.000417466
0.000407464
0.000397463
0.000387462
0.00037746
0.000367459
0.000357458
0.000347456
0.000337455
0.000327453
0.000317452
0.000307451
0.000297449
0.000287448
0.000277447
0.000267445
0.000257444
0.000247442
0.000237441
0.00022744
0.000217438
0.000207437
0.000197436
0.000187434
0.000177433
0.000167432
0.00015743
0.000147429
0.000137427
0.000127426
0.000117425
0.000107423
9.74217e-05
8.74202e-05
7.74189e-05
6.74176e-05
5.74168e-05
4.74167e-05
3.74185e-05
2.74242e-05
1.74383e-05
7.47511e-06
0.000995672
0.000987323
0.000977523
0.000967496
0.000957527
0.000947535
0.000937541
0.000927545
0.000917547
0.000907548
0.000897548
0.000887548
0.000877547
0.000867546
0.000857544
0.000847542
0.000837541
0.000827539
0.000817537
0.000807536
0.000797534
0.000787532
0.000777531
0.000767529
0.000757528
0.000747526
0.000737525
0.000727523
0.000717522
0.00070752
0.000697519
0.000687517
0.000677516
0.000667514
0.000657513
0.000647511
0.00063751
0.000627509
0.000617507
0.000607506
0.000597504
0.000587503
0.000577502
0.0005675
0.000557499
0.000547497
0.000537496
0.000527495
0.000517493
0.000507492
0.00049749
0.000487489
0.000477488
0.000467486
0.000457485
0.000447483
0.000437482
0.00042748
0.000417479
0.000407478
0.000397476
0.000387475
0.000377474
0.000367472
0.000357471
0.00034747
0.000337468
0.000327467
0.000317466
0.000307464
0.000297463
0.000287461
0.00027746
0.000267458
0.000257457
0.000247456
0.000237454
0.000227453
0.000217452
0.00020745
0.000197449
0.000187448
0.000177446
0.000167445
0.000157444
0.000147442
0.000137441
0.000127439
0.000117438
0.000107436
9.74351e-05
8.74336e-05
7.74323e-05
6.7431e-05
5.74303e-05
4.74302e-05
3.7432e-05
2.74371e-05
1.74484e-05
7.47955e-06
0.000995571
0.000987349
0.000977532
0.000967494
0.000957517
0.000947523
0.000937529
0.000927532
0.000917533
0.000907535
0.000897535
0.000887535
0.000877534
0.000867533
0.000857532
0.00084753
0.000837528
0.000827527
0.000817525
0.000807523
0.000797522
0.00078752
0.000777519
0.000767517
0.000757516
0.000747514
0.000737513
0.000727511
0.00071751
0.000707508
0.000697507
0.000687505
0.000677504
0.000667502
0.000657501
0.000647499
0.000637498
0.000627497
0.000617495
0.000607494
0.000597492
0.000587491
0.00057749
0.000567488
0.000557487
0.000547485
0.000537484
0.000527483
0.000517481
0.00050748
0.000497478
0.000487477
0.000477476
0.000467474
0.000457473
0.000447471
0.00043747
0.000427469
0.000417467
0.000407466
0.000397465
0.000387463
0.000377462
0.00036746
0.000357459
0.000347458
0.000337456
0.000327455
0.000317454
0.000307452
0.000297451
0.000287449
0.000277448
0.000267447
0.000257445
0.000247444
0.000237443
0.000227441
0.00021744
0.000207438
0.000197437
0.000187436
0.000177434
0.000167433
0.000157432
0.00014743
0.000137429
0.000127427
0.000117426
0.000107425
9.74232e-05
8.74217e-05
7.74204e-05
6.74192e-05
5.74185e-05
4.74184e-05
3.742e-05
2.74243e-05
1.74327e-05
7.46476e-06
0.000995522
0.000987327
0.000977539
0.000967497
0.00095752
0.000947524
0.00093753
0.000927532
0.000917533
0.000907534
0.000897535
0.000887534
0.000877534
0.000867533
0.000857531
0.00084753
0.000837528
0.000827526
0.000817525
0.000807523
0.000797522
0.00078752
0.000777518
0.000767517
0.000757515
0.000747514
0.000737512
0.000727511
0.000717509
0.000707508
0.000697507
0.000687505
0.000677504
0.000667502
0.000657501
0.000647499
0.000637498
0.000627496
0.000617495
0.000607494
0.000597492
0.000587491
0.000577489
0.000567488
0.000557487
0.000547485
0.000537484
0.000527482
0.000517481
0.00050748
0.000497478
0.000487477
0.000477475
0.000467474
0.000457473
0.000447471
0.00043747
0.000427468
0.000417467
0.000407466
0.000397464
0.000387463
0.000377462
0.00036746
0.000357459
0.000347457
0.000337456
0.000327455
0.000317453
0.000307452
0.000297451
0.000287449
0.000277448
0.000267446
0.000257445
0.000247444
0.000237442
0.000227441
0.00021744
0.000207438
0.000197437
0.000187435
0.000177434
0.000167433
0.000157431
0.00014743
0.000137429
0.000127427
0.000117426
0.000107424
9.7423e-05
8.74214e-05
7.74201e-05
6.74189e-05
5.74182e-05
4.74181e-05
3.74196e-05
2.74233e-05
1.74306e-05
7.46013e-06
0.000995756
0.00098722
0.000977571
0.000967498
0.000957521
0.000947523
0.000937529
0.000927531
0.000917532
0.000907534
0.000897535
0.000887535
0.000877534
0.000867533
0.000857532
0.000847531
0.000837529
0.000827528
0.000817526
0.000807524
0.000797523
0.000787521
0.00077752
0.000767518
0.000757517
0.000747515
0.000737514
0.000727512
0.000717511
0.000707509
0.000697508
0.000687506
0.000677505
0.000667504
0.000657502
0.000647501
0.000637499
0.000627498
0.000617496
0.000607495
0.000597494
0.000587492
0.000577491
0.000567489
0.000557488
0.000547487
0.000537485
0.000527484
0.000517482
0.000507481
0.00049748
0.000487478
0.000477477
0.000467475
0.000457474
0.000447473
0.000437471
0.00042747
0.000417468
0.000407467
0.000397466
0.000387464
0.000377463
0.000367462
0.00035746
0.000347459
0.000337457
0.000327456
0.000317455
0.000307453
0.000297452
0.00028745
0.000277449
0.000267448
0.000257446
0.000247445
0.000237444
0.000227442
0.000217441
0.00020744
0.000197438
0.000187437
0.000177436
0.000167434
0.000157433
0.000147431
0.00013743
0.000127428
0.000117427
0.000107426
9.74244e-05
8.7423e-05
7.74218e-05
6.74208e-05
5.74204e-05
4.74208e-05
3.74229e-05
2.74272e-05
1.74339e-05
7.45437e-06
0.000995602
0.000987315
0.000977556
0.0009675
0.000957522
0.000947523
0.000937529
0.000927531
0.000917532
0.000907534
0.000897534
0.000887534
0.000877534
0.000867533
0.000857532
0.00084753
0.000837529
0.000827527
0.000817526
0.000807524
0.000797523
0.000787521
0.000777519
0.000767518
0.000757516
0.000747515
0.000737513
0.000727512
0.000717511
0.000707509
0.000697508
0.000687506
0.000677505
0.000667503
0.000657502
0.0006475
0.000637499
0.000627497
0.000617496
0.000607495
0.000597493
0.000587492
0.000577491
0.000567489
0.000557488
0.000547486
0.000537485
0.000527483
0.000517482
0.000507481
0.000497479
0.000487478
0.000477477
0.000467475
0.000457474
0.000447472
0.000437471
0.000427469
0.000417468
0.000407467
0.000397465
0.000387464
0.000377463
0.000367461
0.00035746
0.000347458
0.000337457
0.000327456
0.000317454
0.000307453
0.000297452
0.00028745
0.000277449
0.000267447
0.000257446
0.000247445
0.000237443
0.000227442
0.000217441
0.000207439
0.000197438
0.000187437
0.000177435
0.000167434
0.000157432
0.000147431
0.00013743
0.000127428
0.000117427
0.000107425
9.7424e-05
8.74225e-05
7.74213e-05
6.74202e-05
5.74198e-05
4.74201e-05
3.74222e-05
2.74265e-05
1.74336e-05
7.4561e-06
0.000995516
0.000987358
0.000977537
0.000967497
0.000957522
0.000947526
0.00093753
0.000927531
0.000917532
0.000907534
0.000897534
0.000887534
0.000877533
0.000867532
0.000857531
0.000847529
0.000837528
0.000827526
0.000817524
0.000807523
0.000797521
0.00078752
0.000777518
0.000767517
0.000757515
0.000747514
0.000737512
0.000727511
0.000717509
0.000707508
0.000697506
0.000687505
0.000677503
0.000667502
0.000657501
0.000647499
0.000637498
0.000627496
0.000617495
0.000607493
0.000597492
0.000587491
0.000577489
0.000567488
0.000557486
0.000547485
0.000537484
0.000527482
0.000517481
0.000507479
0.000497478
0.000487477
0.000477475
0.000467474
0.000457472
0.000447471
0.00043747
0.000427468
0.000417467
0.000407465
0.000397464
0.000387463
0.000377461
0.00036746
0.000357459
0.000347457
0.000337456
0.000327454
0.000317453
0.000307452
0.00029745
0.000287449
0.000277447
0.000267446
0.000257445
0.000247443
0.000237442
0.000227441
0.000217439
0.000207438
0.000197437
0.000187435
0.000177434
0.000167432
0.000157431
0.00014743
0.000137428
0.000127427
0.000117425
0.000107424
9.74225e-05
8.7421e-05
7.74197e-05
6.74184e-05
5.74178e-05
4.74178e-05
3.74194e-05
2.74235e-05
1.74312e-05
7.46275e-06
0.000995596
0.00098734
0.00097754
0.000967495
0.000957524
0.00094753
0.000937535
0.000927535
0.000917536
0.000907538
0.000897538
0.000887537
0.000877536
0.000867535
0.000857534
0.000847533
0.000837531
0.000827529
0.000817528
0.000807526
0.000797524
0.000787523
0.000777521
0.00076752
0.000757518
0.000747517
0.000737515
0.000727514
0.000717513
0.000707511
0.00069751
0.000687508
0.000677507
0.000667505
0.000657504
0.000647502
0.000637501
0.000627499
0.000617498
0.000607497
0.000597495
0.000587494
0.000577492
0.000567491
0.00055749
0.000547488
0.000537487
0.000527485
0.000517484
0.000507483
0.000497481
0.00048748
0.000477479
0.000467477
0.000457476
0.000447474
0.000437473
0.000427471
0.00041747
0.000407469
0.000397467
0.000387466
0.000377465
0.000367463
0.000357462
0.000347461
0.000337459
0.000327458
0.000317456
0.000307455
0.000297454
0.000287452
0.000277451
0.000267449
0.000257448
0.000247447
0.000237445
0.000227444
0.000217443
0.000207441
0.00019744
0.000187438
0.000177437
0.000167436
0.000157434
0.000147433
0.000137431
0.00012743
0.000117429
0.000107427
9.74257e-05
8.74242e-05
7.74228e-05
6.74216e-05
5.74209e-05
4.74211e-05
3.7423e-05
2.74278e-05
1.74371e-05
7.46912e-06
0.000995762
0.000987312
0.000977516
0.000967475
0.000957518
0.000947526
0.00093753
0.000927532
0.000917533
0.000907534
0.000897534
0.000887533
0.000877532
0.000867531
0.000857529
0.000847528
0.000837526
0.000827524
0.000817523
0.000807521
0.00079752
0.000787518
0.000777516
0.000767515
0.000757513
0.000747512
0.000737511
0.000727509
0.000717508
0.000707506
0.000697505
0.000687503
0.000677502
0.0006675
0.000657499
0.000647497
0.000637496
0.000627495
0.000617493
0.000607492
0.00059749
0.000587489
0.000577488
0.000567486
0.000557485
0.000547483
0.000537482
0.00052748
0.000517479
0.000507478
0.000497476
0.000487475
0.000477474
0.000467472
0.000457471
0.000447469
0.000437468
0.000427467
0.000417465
0.000407464
0.000397462
0.000387461
0.00037746
0.000367458
0.000357457
0.000347456
0.000337454
0.000327453
0.000317451
0.00030745
0.000297449
0.000287447
0.000277446
0.000267444
0.000257443
0.000247442
0.000237441
0.000227439
0.000217438
0.000207436
0.000197435
0.000187434
0.000177432
0.000167431
0.000157429
0.000147428
0.000137427
0.000127425
0.000117424
0.000107422
9.74207e-05
8.74191e-05
7.74177e-05
6.74164e-05
5.74157e-05
4.74158e-05
3.74179e-05
2.74237e-05
1.74367e-05
7.46985e-06
0.000996916
0.000987331
0.000977434
0.000967482
0.000957516
0.000947526
0.000937532
0.000927537
0.000917538
0.000907538
0.000897537
0.000887536
0.000877534
0.000867533
0.000857531
0.00084753
0.000837528
0.000827526
0.000817525
0.000807523
0.000797522
0.00078752
0.000777518
0.000767517
0.000757515
0.000747514
0.000737513
0.000727511
0.00071751
0.000707508
0.000697507
0.000687505
0.000677504
0.000667502
0.000657501
0.0006475
0.000637498
0.000627497
0.000617495
0.000607494
0.000597492
0.000587491
0.00057749
0.000567488
0.000557487
0.000547485
0.000537484
0.000527483
0.000517481
0.00050748
0.000497478
0.000487477
0.000477476
0.000467474
0.000457473
0.000447471
0.00043747
0.000427469
0.000417467
0.000407466
0.000397465
0.000387463
0.000377462
0.000367461
0.000357459
0.000347458
0.000337456
0.000327455
0.000317454
0.000307452
0.000297451
0.000287449
0.000277448
0.000267447
0.000257445
0.000247444
0.000237443
0.000227441
0.00021744
0.000207439
0.000197437
0.000187436
0.000177434
0.000167433
0.000157432
0.00014743
0.000137429
0.000127427
0.000117426
0.000107424
9.74225e-05
8.74207e-05
7.74191e-05
6.74175e-05
5.74163e-05
4.7416e-05
3.74175e-05
2.74234e-05
1.74389e-05
7.4815e-06
0.00099587
0.000987301
0.000977473
0.000967473
0.000957515
0.000947524
0.000937529
0.000927533
0.000917535
0.000907536
0.000897536
0.000887536
0.000877535
0.000867534
0.000857532
0.000847531
0.000837529
0.000827527
0.000817525
0.000807524
0.000797522
0.00078752
0.000777519
0.000767517
0.000757516
0.000747514
0.000737512
0.000727511
0.000717509
0.000707508
0.000697507
0.000687505
0.000677504
0.000667502
0.000657501
0.000647499
0.000637498
0.000627497
0.000617495
0.000607494
0.000597492
0.000587491
0.00057749
0.000567488
0.000557487
0.000547485
0.000537484
0.000527483
0.000517481
0.00050748
0.000497478
0.000487477
0.000477476
0.000467474
0.000457473
0.000447471
0.00043747
0.000427469
0.000417467
0.000407466
0.000397464
0.000387463
0.000377462
0.00036746
0.000357459
0.000347458
0.000337456
0.000327455
0.000317454
0.000307452
0.000297451
0.000287449
0.000277448
0.000267447
0.000257445
0.000247444
0.000237443
0.000227441
0.00021744
0.000207438
0.000197437
0.000187436
0.000177434
0.000167433
0.000157432
0.00014743
0.000137429
0.000127428
0.000117426
0.000107424
9.74231e-05
8.74216e-05
7.74204e-05
6.74192e-05
5.74185e-05
4.74185e-05
3.74203e-05
2.74259e-05
1.74394e-05
7.47338e-06
0.000995594
0.000987302
0.000977524
0.000967491
0.000957525
0.000947532
0.000937538
0.000927542
0.000917543
0.000907544
0.000897544
0.000887544
0.000877543
0.000867542
0.000857541
0.000847539
0.000837538
0.000827536
0.000817534
0.000807532
0.000797531
0.000787529
0.000777528
0.000767526
0.000757524
0.000747523
0.000737521
0.00072752
0.000717518
0.000707517
0.000697515
0.000687514
0.000677513
0.000667511
0.00065751
0.000647508
0.000637507
0.000627506
0.000617504
0.000607503
0.000597501
0.0005875
0.000577499
0.000567497
0.000557496
0.000547494
0.000537493
0.000527491
0.00051749
0.000507489
0.000497487
0.000487486
0.000477484
0.000467483
0.000457482
0.00044748
0.000437479
0.000427477
0.000417476
0.000407475
0.000397473
0.000387472
0.000377471
0.000367469
0.000357468
0.000347466
0.000337465
0.000327464
0.000317462
0.000307461
0.00029746
0.000287458
0.000277457
0.000267455
0.000257454
0.000247453
0.000237451
0.00022745
0.000217449
0.000207447
0.000197446
0.000187445
0.000177443
0.000167442
0.000157441
0.000147439
0.000137438
0.000127436
0.000117435
0.000107433
9.7432e-05
8.74306e-05
7.74293e-05
6.7428e-05
5.74273e-05
4.74272e-05
3.74287e-05
2.74331e-05
1.74431e-05
7.47465e-06
0.000995501
0.000987242
0.000977567
0.000967513
0.000957523
0.000947525
0.000937534
0.000927536
0.000917537
0.000907539
0.00089754
0.000887541
0.00087754
0.00086754
0.000857539
0.000847537
0.000837536
0.000827534
0.000817533
0.000807531
0.00079753
0.000787528
0.000777526
0.000767525
0.000757523
0.000747522
0.00073752
0.000727519
0.000717517
0.000707516
0.000697514
0.000687513
0.000677511
0.00066751
0.000657509
0.000647507
0.000637506
0.000627504
0.000617503
0.000607501
0.0005975
0.000587499
0.000577497
0.000567496
0.000557494
0.000547493
0.000537492
0.00052749
0.000517489
0.000507487
0.000497486
0.000487485
0.000477483
0.000467482
0.00045748
0.000447479
0.000437478
0.000427476
0.000417475
0.000407473
0.000397472
0.000387471
0.000377469
0.000367468
0.000357467
0.000347465
0.000337464
0.000327462
0.000317461
0.00030746
0.000297458
0.000287457
0.000277456
0.000267454
0.000257453
0.000247451
0.00023745
0.000227449
0.000217447
0.000207446
0.000197445
0.000187443
0.000177442
0.000167441
0.000157439
0.000147438
0.000137437
0.000127435
0.000117434
0.000107432
9.74311e-05
8.74297e-05
7.74286e-05
6.74277e-05
5.74273e-05
4.74276e-05
3.74292e-05
2.74325e-05
1.74368e-05
7.456e-06
0.000993322
0.000985565
0.000974909
0.000964999
0.00095506
0.000945019
0.000935034
0.000925042
0.000915041
0.000905042
0.000895043
0.000885043
0.000875042
0.000865041
0.00085504
0.000845039
0.000835037
0.000825036
0.000815034
0.000805032
0.000795031
0.000785029
0.000775028
0.000765026
0.000755025
0.000745023
0.000735022
0.00072502
0.000715019
0.000705017
0.000695016
0.000685014
0.000675013
0.000665011
0.00065501
0.000645009
0.000635007
0.000625006
0.000615004
0.000605003
0.000595001
0.000585
0.000574999
0.000564997
0.000554996
0.000544994
0.000534993
0.000524992
0.00051499
0.000504989
0.000494987
0.000484986
0.000474985
0.000464983
0.000454982
0.00044498
0.000434979
0.000424978
0.000414976
0.000404975
0.000394974
0.000384972
0.000374971
0.000364969
0.000354968
0.000344967
0.000334965
0.000324964
0.000314963
0.000304961
0.00029496
0.000284958
0.000274957
0.000264956
0.000254954
0.000244953
0.000234952
0.00022495
0.000214949
0.000204948
0.000194946
0.000184945
0.000174944
0.000164942
0.000154941
0.000144939
0.000134938
0.000124937
0.000114935
0.000104934
9.49327e-05
8.49316e-05
7.49306e-05
6.493e-05
5.49299e-05
4.49303e-05
3.4932e-05
2.4937e-05
1.49212e-05
4.91413e-06
0.000993485
0.000985699
0.000974872
0.000964996
0.000955072
0.000945021
0.000935035
0.000925044
0.000915042
0.000905042
0.000895043
0.000885043
0.000875042
0.000865041
0.00085504
0.000845038
0.000835037
0.000825035
0.000815034
0.000805032
0.000795031
0.000785029
0.000775027
0.000765026
0.000755024
0.000745023
0.000735021
0.00072502
0.000715019
0.000705017
0.000695016
0.000685014
0.000675013
0.000665011
0.00065501
0.000645008
0.000635007
0.000625006
0.000615004
0.000605003
0.000595001
0.000585
0.000574999
0.000564997
0.000554996
0.000544994
0.000534993
0.000524992
0.00051499
0.000504989
0.000494987
0.000484986
0.000474985
0.000464983
0.000454982
0.00044498
0.000434979
0.000424978
0.000414976
0.000404975
0.000394974
0.000384972
0.000374971
0.000364969
0.000354968
0.000344967
0.000334965
0.000324964
0.000314963
0.000304961
0.00029496
0.000284958
0.000274957
0.000264956
0.000254954
0.000244953
0.000234952
0.00022495
0.000214949
0.000204948
0.000194946
0.000184945
0.000174943
0.000164942
0.000154941
0.000144939
0.000134938
0.000124937
0.000114935
0.000104934
9.49327e-05
8.49315e-05
7.49305e-05
6.49298e-05
5.49297e-05
4.49299e-05
3.49316e-05
2.49371e-05
1.49223e-05
4.92081e-06
0.000993511
0.000985691
0.000974857
0.000965005
0.000955075
0.000945019
0.000935035
0.000925044
0.000915041
0.000905042
0.000895043
0.000885042
0.000875042
0.000865041
0.000855039
0.000845038
0.000835037
0.000825035
0.000815034
0.000805032
0.000795031
0.000785029
0.000775027
0.000765026
0.000755024
0.000745023
0.000735021
0.00072502
0.000715019
0.000705017
0.000695016
0.000685014
0.000675013
0.000665011
0.00065501
0.000645008
0.000635007
0.000625006
0.000615004
0.000605003
0.000595001
0.000585
0.000574999
0.000564997
0.000554996
0.000544994
0.000534993
0.000524992
0.00051499
0.000504989
0.000494987
0.000484986
0.000474985
0.000464983
0.000454982
0.00044498
0.000434979
0.000424978
0.000414976
0.000404975
0.000394974
0.000384972
0.000374971
0.000364969
0.000354968
0.000344967
0.000334965
0.000324964
0.000314963
0.000304961
0.00029496
0.000284958
0.000274957
0.000264956
0.000254954
0.000244953
0.000234952
0.00022495
0.000214949
0.000204948
0.000194946
0.000184945
0.000174943
0.000164942
0.000154941
0.000144939
0.000134938
0.000124937
0.000114935
0.000104934
9.49328e-05
8.49316e-05
7.49307e-05
6.49301e-05
5.493e-05
4.49304e-05
3.49321e-05
2.49376e-05
1.49225e-05
4.92207e-06
0.000993467
0.000985686
0.000974866
0.000965008
0.000955075
0.000945018
0.000935034
0.000925044
0.000915041
0.000905041
0.000895042
0.000885042
0.000875041
0.00086504
0.000855039
0.000845038
0.000835037
0.000825035
0.000815034
0.000805032
0.000795031
0.000785029
0.000775027
0.000765026
0.000755024
0.000745023
0.000735021
0.00072502
0.000715019
0.000705017
0.000695016
0.000685014
0.000675013
0.000665011
0.00065501
0.000645008
0.000635007
0.000625006
0.000615004
0.000605003
0.000595001
0.000585
0.000574999
0.000564997
0.000554996
0.000544994
0.000534993
0.000524992
0.00051499
0.000504989
0.000494987
0.000484986
0.000474985
0.000464983
0.000454982
0.00044498
0.000434979
0.000424978
0.000414976
0.000404975
0.000394974
0.000384972
0.000374971
0.000364969
0.000354968
0.000344967
0.000334965
0.000324964
0.000314963
0.000304961
0.00029496
0.000284958
0.000274957
0.000264956
0.000254954
0.000244953
0.000234952
0.00022495
0.000214949
0.000204948
0.000194946
0.000184945
0.000174943
0.000164942
0.000154941
0.000144939
0.000134938
0.000124937
0.000114935
0.000104934
9.49328e-05
8.49316e-05
7.49307e-05
6.49302e-05
5.49302e-05
4.49306e-05
3.49325e-05
2.49381e-05
1.49228e-05
4.92195e-06
0.000993511
0.000985691
0.000974857
0.000965006
0.000955076
0.00094502
0.000935035
0.000925044
0.000915042
0.000905042
0.000895042
0.000885042
0.000875041
0.00086504
0.000855039
0.000845038
0.000835037
0.000825035
0.000815034
0.000805032
0.00079503
0.000785029
0.000775027
0.000765026
0.000755024
0.000745023
0.000735021
0.00072502
0.000715019
0.000705017
0.000695016
0.000685014
0.000675013
0.000665011
0.00065501
0.000645008
0.000635007
0.000625006
0.000615004
0.000605003
0.000595001
0.000585
0.000574999
0.000564997
0.000554996
0.000544994
0.000534993
0.000524992
0.00051499
0.000504989
0.000494987
0.000484986
0.000474985
0.000464983
0.000454982
0.00044498
0.000434979
0.000424978
0.000414976
0.000404975
0.000394974
0.000384972
0.000374971
0.000364969
0.000354968
0.000344967
0.000334965
0.000324964
0.000314963
0.000304961
0.00029496
0.000284958
0.000274957
0.000264956
0.000254954
0.000244953
0.000234952
0.00022495
0.000214949
0.000204948
0.000194946
0.000184945
0.000174943
0.000164942
0.000154941
0.000144939
0.000134938
0.000124937
0.000114935
0.000104934
9.49326e-05
8.49315e-05
7.49305e-05
6.49299e-05
5.49298e-05
4.49302e-05
3.49319e-05
2.49374e-05
1.49225e-05
4.92196e-06
0.000993486
0.0009857
0.000974872
0.000964998
0.000955074
0.000945022
0.000935036
0.000925044
0.000915042
0.000905042
0.000895043
0.000885043
0.000875042
0.000865041
0.00085504
0.000845038
0.000835037
0.000825035
0.000815034
0.000805032
0.00079503
0.000785029
0.000775027
0.000765026
0.000755024
0.000745023
0.000735021
0.00072502
0.000715019
0.000705017
0.000695016
0.000685014
0.000675013
0.000665011
0.00065501
0.000645008
0.000635007
0.000625006
0.000615004
0.000605003
0.000595001
0.000585
0.000574999
0.000564997
0.000554996
0.000544994
0.000534993
0.000524992
0.00051499
0.000504989
0.000494987
0.000484986
0.000474985
0.000464983
0.000454982
0.00044498
0.000434979
0.000424978
0.000414976
0.000404975
0.000394974
0.000384972
0.000374971
0.000364969
0.000354968
0.000344967
0.000334965
0.000324964
0.000314963
0.000304961
0.00029496
0.000284958
0.000274957
0.000264956
0.000254954
0.000244953
0.000234952
0.00022495
0.000214949
0.000204947
0.000194946
0.000184945
0.000174943
0.000164942
0.000154941
0.000144939
0.000134938
0.000124936
0.000114935
0.000104934
9.49324e-05
8.49313e-05
7.49302e-05
6.49296e-05
5.49294e-05
4.49297e-05
3.49315e-05
2.4937e-05
1.49225e-05
4.92073e-06
0.000993324
0.000985563
0.000974907
0.000965
0.000955061
0.00094502
0.000935036
0.000925043
0.000915042
0.000905042
0.000895043
0.000885043
0.000875042
0.000865041
0.00085504
0.000845038
0.000835037
0.000825035
0.000815033
0.000805032
0.00079503
0.000785029
0.000775027
0.000765026
0.000755024
0.000745023
0.000735021
0.00072502
0.000715018
0.000705017
0.000695016
0.000685014
0.000675013
0.000665011
0.00065501
0.000645008
0.000635007
0.000625006
0.000615004
0.000605003
0.000595001
0.000585
0.000574999
0.000564997
0.000554996
0.000544994
0.000534993
0.000524992
0.00051499
0.000504989
0.000494987
0.000484986
0.000474985
0.000464983
0.000454982
0.00044498
0.000434979
0.000424978
0.000414976
0.000404975
0.000394974
0.000384972
0.000374971
0.000364969
0.000354968
0.000344967
0.000334965
0.000324964
0.000314963
0.000304961
0.00029496
0.000284958
0.000274957
0.000264956
0.000254954
0.000244953
0.000234952
0.00022495
0.000214949
0.000204947
0.000194946
0.000184945
0.000174943
0.000164942
0.000154941
0.000144939
0.000134938
0.000124936
0.000114935
0.000104934
9.49323e-05
8.49311e-05
7.49301e-05
6.49295e-05
5.49294e-05
4.49298e-05
3.49317e-05
2.49369e-05
1.49216e-05
4.91415e-06
0.00099595
0.000987752
0.000977382
0.000967555
0.000957545
0.000947531
0.000937548
0.00092755
0.00091755
0.000907551
0.000897552
0.000887551
0.000877551
0.00086755
0.000857549
0.000847547
0.000837546
0.000827544
0.000817543
0.000807541
0.00079754
0.000787538
0.000777536
0.000767535
0.000757533
0.000747532
0.000737531
0.000727529
0.000717528
0.000707526
0.000697525
0.000687523
0.000677522
0.00066752
0.000657519
0.000647517
0.000637516
0.000627515
0.000617513
0.000607512
0.00059751
0.000587509
0.000577508
0.000567506
0.000557505
0.000547503
0.000537502
0.000527501
0.000517499
0.000507498
0.000497496
0.000487495
0.000477494
0.000467492
0.000457491
0.000447489
0.000437488
0.000427487
0.000417485
0.000407484
0.000397483
0.000387481
0.00037748
0.000367478
0.000357477
0.000347476
0.000337474
0.000327473
0.000317472
0.00030747
0.000297469
0.000287467
0.000277466
0.000267465
0.000257463
0.000247462
0.000237461
0.000227459
0.000217458
0.000207456
0.000197455
0.000187454
0.000177452
0.000167451
0.000157449
0.000147448
0.000137447
0.000127445
0.000117444
0.000107442
9.74409e-05
8.74395e-05
7.74382e-05
6.74372e-05
5.74367e-05
4.7437e-05
3.74385e-05
2.74422e-05
1.74453e-05
7.43935e-06
0.000995536
0.000987298
0.000977566
0.000967485
0.000957513
0.000947517
0.000937524
0.000927526
0.000917527
0.000907529
0.000897529
0.000887529
0.000877528
0.000867527
0.000857526
0.000847525
0.000837523
0.000827521
0.00081752
0.000807518
0.000797517
0.000787515
0.000777514
0.000767512
0.000757511
0.000747509
0.000737508
0.000727506
0.000717505
0.000707504
0.000697502
0.000687501
0.000677499
0.000667498
0.000657496
0.000647495
0.000637493
0.000627492
0.000617491
0.000607489
0.000597488
0.000587486
0.000577485
0.000567484
0.000557482
0.000547481
0.000537479
0.000527478
0.000517476
0.000507475
0.000497474
0.000487472
0.000477471
0.00046747
0.000457468
0.000447467
0.000437465
0.000427464
0.000417463
0.000407461
0.00039746
0.000387458
0.000377457
0.000367456
0.000357454
0.000347453
0.000337451
0.00032745
0.000317449
0.000307447
0.000297446
0.000287445
0.000277443
0.000267442
0.00025744
0.000247439
0.000237438
0.000227436
0.000217435
0.000207433
0.000197432
0.000187431
0.000177429
0.000167428
0.000157427
0.000147425
0.000137424
0.000127422
0.000117421
0.000107419
9.7418e-05
8.74166e-05
7.74153e-05
6.74143e-05
5.74138e-05
4.74141e-05
3.74161e-05
2.74205e-05
1.74277e-05
7.45586e-06
0.000995684
0.000987314
0.000977518
0.000967476
0.000957515
0.000947523
0.000937528
0.000927532
0.000917534
0.000907534
0.000897534
0.000887533
0.000877532
0.000867531
0.000857529
0.000847528
0.000837526
0.000827524
0.000817522
0.000807521
0.000797519
0.000787518
0.000777516
0.000767515
0.000757513
0.000747512
0.00073751
0.000727509
0.000717507
0.000707506
0.000697505
0.000687503
0.000677502
0.0006675
0.000657499
0.000647497
0.000637496
0.000627494
0.000617493
0.000607492
0.00059749
0.000587489
0.000577487
0.000567486
0.000557485
0.000547483