/*--------------------------------*- C++ -*----------------------------------*\
| =========                 |                                                 |
| \\      /  F ield         | OpenFOAM: The Open Source CFD Toolbox           |
|  \\    /   O peration     | Version:  2412                                  |
|   \\  /    A nd           | Website:  www.openfoam.com                      |
|    \\/     M anipulation  |                                                 |
\*---------------------------------------------------------------------------*/
FoamFile
{
    version     2.0;
    format      ascii;
    arch        "LSB;label=32;scalar=64";
    class       surfaceScalarField;
    location    "50";
    object      phi;
}
// * * * * * * * * * * * * * * * * * * * * * * * * * * * * * * * * * * * * * //

dimensions      [0 3 -1 0 0 0 0];

oriented        oriented;

internalField   nonuniform List<scalar> 
116495
(
1.34916e-17
2.61364e-21
9.79422e-20
1.3519e-17
-2.8651e-21
-2.4028e-20
1.35135e-17
1.07398e-21
4.91853e-21
1.35153e-17
-9.39051e-23
-1.2383e-21
1.35205e-17
4.2033e-23
-4.92043e-21
1.35216e-17
1.08416e-22
-1.18976e-21
1.35225e-17
4.18463e-23
-1.03048e-21
1.35235e-17
2.973e-23
-1.16315e-21
1.35241e-17
4.91948e-23
-7.25531e-22
1.35244e-17
5.55609e-23
-4.63817e-22
1.35247e-17
6.91062e-23
-3.49293e-22
1.35249e-17
7.85044e-23
-2.62639e-22
1.3525e-17
8.38481e-23
-1.79627e-22
1.3525e-17
8.09065e-23
-1.30345e-22
1.3525e-17
7.76257e-23
-9.38231e-23
1.3525e-17
7.10333e-23
-7.05771e-23
1.3525e-17
6.44499e-23
-4.71031e-23
1.3525e-17
5.56275e-23
-3.11248e-23
1.3525e-17
4.73298e-23
-1.43305e-23
1.3525e-17
3.78973e-23
-3.1466e-24
1.3525e-17
2.97923e-23
8.17521e-24
1.35249e-17
2.14658e-23
1.64009e-23
1.35249e-17
1.48419e-23
2.52833e-23
1.35249e-17
9.23864e-24
3.23435e-23
1.35249e-17
5.7798e-24
3.68627e-23
1.35249e-17
4.73072e-24
4.02938e-23
1.35249e-17
3.35965e-24
4.01865e-23
1.35249e-17
2.59984e-24
4.27737e-23
1.35249e-17
8.81888e-26
4.011e-23
1.35249e-17
-8.46857e-25
3.88813e-23
1.35249e-17
-2.40167e-24
3.34688e-23
1.35249e-17
-2.2875e-24
3.16781e-23
1.35249e-17
-3.14468e-24
2.68574e-23
1.35249e-17
-2.98965e-24
2.58435e-23
1.35249e-17
-3.78702e-24
2.29436e-23
1.35249e-17
-3.27056e-24
2.28044e-23
1.35249e-17
-2.92398e-24
1.93299e-23
1.35249e-17
-1.521e-24
1.9798e-23
1.35249e-17
-1.85073e-24
1.71749e-23
1.35249e-17
-2.0228e-24
1.72934e-23
1.35249e-17
-3.50654e-24
1.58511e-23
1.35249e-17
-3.76495e-24
1.52299e-23
1.35249e-17
-2.75294e-24
1.19589e-23
1.35249e-17
2.63887e-25
1.09593e-23
1.35249e-17
2.38445e-24
9.34643e-24
1.35249e-17
4.00015e-24
1.24543e-23
1.35249e-17
2.89097e-24
1.11138e-23
1.35249e-17
2.24411e-24
1.21082e-23
1.35249e-17
4.78126e-25
9.73582e-24
1.35249e-17
3.92417e-25
1.02926e-23
1.35249e-17
1.22758e-25
7.4431e-24
1.35249e-17
1.0681e-24
8.91432e-24
1.35249e-17
1.80702e-25
7.08083e-24
1.35249e-17
-3.19157e-25
8.31965e-24
1.35249e-17
-2.18496e-24
7.6741e-24
1.35249e-17
-2.67077e-24
8.1839e-24
1.35249e-17
-2.17065e-24
6.31728e-24
1.35249e-17
5.85922e-26
6.4116e-24
1.35249e-17
1.26806e-24
5.43102e-24
1.35249e-17
1.67548e-24
8.94987e-24
1.35249e-17
-5.11818e-25
9.85588e-24
1.35249e-17
-1.69371e-24
1.01331e-23
1.35249e-17
-2.11418e-24
7.51884e-24
1.35249e-17
-8.47612e-25
6.23994e-24
1.35249e-17
-1.3874e-25
5.25188e-24
1.35249e-17
2.71277e-25
6.70371e-24
1.35249e-17
-1.53389e-25
5.96311e-24
1.35249e-17
-9.27735e-26
4.23148e-24
1.35249e-17
5.66896e-25
1.99908e-24
1.35249e-17
1.56462e-24
-1.24916e-24
1.35249e-17
3.0304e-24
-2.87714e-24
1.35249e-17
3.86627e-24
-4.71175e-24
1.35249e-17
4.80163e-24
-5.25501e-24
1.35249e-17
4.94383e-24
-6.1832e-24
1.35249e-17
5.1746e-24
-5.79082e-24
1.35249e-17
4.61699e-24
-5.59565e-24
1.35249e-17
4.16024e-24
-4.49067e-24
1.35249e-17
3.34971e-24
-3.39502e-24
1.35249e-17
3.00944e-24
-2.13513e-24
1.35249e-17
3.3116e-24
-7.72345e-25
1.35249e-17
4.3731e-24
-1.46557e-24
1.35249e-17
6.16997e-24
-4.1501e-25
1.3525e-17
6.4688e-24
-2.29446e-24
1.3525e-17
5.99027e-24
5.13936e-25
1.3525e-17
2.66818e-24
7.42297e-25
1.3525e-17
3.00705e-25
1.95443e-24
1.3525e-17
-1.19572e-24
2.91885e-24
1.3525e-17
-1.62709e-24
1.15435e-23
1.35249e-17
-3.9856e-24
2.93325e-23
1.35249e-17
-8.7884e-24
6.62196e-23
1.35248e-17
-1.81608e-23
1.2372e-22
1.35246e-17
-2.99198e-23
2.17147e-22
1.35243e-17
-4.534e-23
3.62818e-22
1.35238e-17
-6.55755e-23
5.91002e-22
1.35229e-17
-9.54161e-23
9.40381e-22
1.35216e-17
-1.37513e-22
1.48445e-21
1.35195e-17
-1.95652e-22
2.25569e-21
1.35166e-17
-2.98015e-22
3.22969e-21
1.35117e-17
-3.55743e-22
5.23556e-21
-2.15041e-22
6.5613e-21
1.88641e-17
-2.86416e-21
1.15655e-19
1.88933e-17
2.65644e-21
-3.41161e-20
1.88892e-17
-1.19128e-21
7.01753e-21
1.88905e-17
2.14414e-23
-7.98946e-22
1.88969e-17
-1.48888e-22
-5.82501e-21
1.88988e-17
-2.04075e-22
-1.35461e-21
1.89e-17
-9.98277e-23
-1.13628e-21
1.89013e-17
-6.42682e-23
-1.30429e-21
1.89021e-17
-3.33307e-23
-8.00391e-22
1.89026e-17
3.67695e-24
-4.81344e-22
1.89029e-17
3.53707e-23
-3.48112e-22
1.89032e-17
5.60245e-23
-2.37493e-22
1.89033e-17
6.57702e-23
-1.42016e-22
1.89034e-17
6.85974e-23
-8.03869e-23
1.89034e-17
6.69407e-23
-4.46691e-23
1.89034e-17
6.3568e-23
-1.91684e-23
1.89034e-17
5.73054e-23
-2.07144e-24
1.89034e-17
5.12939e-23
1.19226e-23
1.89034e-17
4.32923e-23
2.05025e-23
1.89034e-17
3.62327e-23
2.77014e-23
1.89033e-17
2.82974e-23
3.15006e-23
1.89033e-17
2.16397e-23
3.53206e-23
1.89033e-17
1.52105e-23
3.80193e-23
1.89033e-17
1.05592e-23
4.06844e-23
1.89033e-17
7.53953e-24
4.28516e-23
1.89033e-17
6.08686e-24
4.4525e-23
1.89033e-17
5.10406e-24
4.54945e-23
1.89033e-17
3.29303e-24
4.51759e-23
1.89033e-17
1.3532e-24
4.26596e-23
1.89033e-17
-4.50666e-25
3.87875e-23
1.89033e-17
-1.43108e-24
3.4334e-23
1.89033e-17
-2.25976e-24
3.05051e-23
1.89033e-17
-2.74892e-24
2.66989e-23
1.89033e-17
-3.4243e-24
2.39786e-23
1.89033e-17
-3.97745e-24
2.24206e-23
1.89033e-17
-3.91554e-24
2.11184e-23
1.89033e-17
-2.99337e-24
1.99311e-23
1.89033e-17
-2.27929e-24
1.92641e-23
1.89033e-17
-2.02292e-24
1.78567e-23
1.89033e-17
-2.66588e-24
1.60936e-23
1.89033e-17
-3.59619e-24
1.44543e-23
1.89033e-17
-3.96241e-24
1.31449e-23
1.89033e-17
-2.56353e-24
1.20103e-23
1.89033e-17
1.4529e-25
1.21241e-23
1.89033e-17
2.66687e-24
1.38895e-23
1.89033e-17
3.45038e-24
1.57383e-23
1.89033e-17
3.06469e-24
1.543e-23
1.89033e-17
1.9223e-24
1.39756e-23
1.89033e-17
9.23408e-25
1.23799e-23
1.89033e-17
4.68192e-25
1.11524e-23
1.89033e-17
9.25146e-25
1.03714e-23
1.89033e-17
1.14085e-24
1.02938e-23
1.89033e-17
1.0025e-24
9.61698e-24
1.89033e-17
-2.33116e-26
8.56046e-24
1.89033e-17
-1.19846e-24
7.94256e-24
1.89033e-17
-1.92066e-24
7.60208e-24
1.89033e-17
-1.03554e-24
7.23716e-24
1.89033e-17
8.49062e-25
7.7726e-24
1.89033e-17
2.46819e-24
9.46777e-24
1.89033e-17
2.19948e-24
1.10929e-23
1.89033e-17
7.60536e-25
1.12723e-23
1.89033e-17
-7.85724e-25
1.00911e-23
1.89033e-17
-1.04455e-24
8.21431e-24
1.89033e-17
-3.95037e-25
7.065e-24
1.89033e-17
2.17761e-25
7.23789e-24
1.89033e-17
1.56724e-25
7.5652e-24
1.89033e-17
-2.93044e-25
6.33714e-24
1.89033e-17
-3.61772e-25
4.68748e-24
1.89033e-17
-2.24037e-25
1.96965e-24
1.89033e-17
7.47493e-25
-7.34532e-26
1.89033e-17
1.46708e-24
-1.89738e-24
1.89033e-17
2.41325e-24
-2.67236e-24
1.89033e-17
2.77844e-24
-3.65189e-24
1.89033e-17
3.28422e-24
-3.75592e-24
1.89033e-17
3.12811e-24
-3.90653e-24
1.89033e-17
3.01856e-24
-3.36096e-24
1.89033e-17
2.46117e-24
-2.75817e-24
1.89033e-17
2.10221e-24
-1.69312e-24
1.89033e-17
1.9239e-24
-3.57693e-25
1.89033e-17
2.45235e-24
1.20445e-24
1.89033e-17
3.79459e-24
2.54393e-24
1.89033e-17
5.30244e-24
3.29327e-24
1.89033e-17
6.28033e-24
3.52845e-24
1.89034e-17
5.27118e-24
3.75889e-24
1.89034e-17
2.99499e-24
2.98916e-24
1.89034e-17
8.25524e-25
2.36912e-24
1.89034e-17
4.96895e-25
4.46958e-24
1.89033e-17
1.35859e-24
1.36901e-23
1.89033e-17
2.3058e-24
3.50004e-23
1.89032e-17
1.985e-24
7.25792e-23
1.89031e-17
1.83007e-24
1.34781e-22
1.89028e-17
3.73845e-24
2.35549e-22
1.89024e-17
1.0599e-23
3.97464e-22
1.89016e-17
2.32976e-23
6.51076e-22
1.89005e-17
4.42109e-23
1.04131e-21
1.88986e-17
7.36766e-23
1.64553e-21
1.88958e-17
1.11344e-22
2.50402e-21
1.88918e-17
1.78021e-22
3.54986e-21
1.88855e-17
1.85163e-22
5.73594e-21
6.91141e-24
7.39798e-21
1.34931e-17
9.78307e-20
1.35202e-17
-2.40469e-20
1.35146e-17
4.93323e-21
1.35163e-17
-1.26689e-21
1.35215e-17
-5.00776e-21
1.35226e-17
-1.21176e-21
1.35235e-17
-9.99999e-22
1.35246e-17
-1.1007e-21
1.35251e-17
-6.50408e-22
1.35255e-17
-3.68545e-22
1.35257e-17
-2.41768e-22
1.35259e-17
-1.41152e-22
1.3526e-17
-5.89849e-23
1.35261e-17
-1.03421e-23
1.35261e-17
1.66527e-23
1.35261e-17
3.14852e-23
1.35261e-17
3.91615e-23
1.35261e-17
4.50853e-23
1.35261e-17
4.68469e-23
1.35261e-17
4.70562e-23
1.3526e-17
4.39072e-23
1.3526e-17
4.12688e-23
1.3526e-17
3.80197e-23
1.3526e-17
3.61779e-23
1.3526e-17
3.49528e-23
1.3526e-17
3.45361e-23
1.3526e-17
3.41089e-23
1.3526e-17
3.22744e-23
1.3526e-17
2.90979e-23
1.3526e-17
2.52283e-23
1.3526e-17
2.15125e-23
1.3526e-17
1.80851e-23
1.3526e-17
1.50518e-23
1.3526e-17
1.26373e-23
1.3526e-17
1.10897e-23
1.3526e-17
1.03102e-23
1.3526e-17
1.02614e-23
1.3526e-17
1.03508e-23
1.3526e-17
9.6614e-24
1.3526e-17
8.29771e-24
1.3526e-17
6.94138e-24
1.3526e-17
6.0113e-24
1.3526e-17
6.31361e-24
1.3526e-17
8.33973e-24
1.3526e-17
1.11443e-23
1.3526e-17
1.27798e-23
1.3526e-17
1.24609e-23
1.3526e-17
1.09692e-23
1.3526e-17
9.53941e-24
1.3526e-17
8.5309e-24
1.3526e-17
8.44291e-24
1.3526e-17
8.4838e-24
1.3526e-17
7.96412e-24
1.3526e-17
6.79754e-24
1.3526e-17
5.90195e-24
1.3526e-17
5.41154e-24
1.3526e-17
5.63371e-24
1.3526e-17
7.03877e-24
1.3526e-17
8.91534e-24
1.3526e-17
9.75692e-24
1.3526e-17
9.3579e-24
1.3526e-17
7.71187e-24
1.3526e-17
6.16741e-24
1.3526e-17
5.33149e-24
1.3526e-17
5.41494e-24
1.3526e-17
5.12239e-24
1.3526e-17
3.99949e-24
1.3526e-17
2.71993e-24
1.3526e-17
8.70106e-25
1.3526e-17
-2.95254e-25
1.3526e-17
-1.38174e-24
1.3526e-17
-1.74966e-24
1.3526e-17
-2.26808e-24
1.3526e-17
-2.15694e-24
1.3526e-17
-2.25168e-24
1.3526e-17
-1.8466e-24
1.3526e-17
-1.57408e-24
1.3526e-17
-8.5345e-25
1.3526e-17
3.23873e-25
1.3526e-17
2.01913e-24
1.3526e-17
3.91337e-24
1.3526e-17
5.0687e-24
1.3526e-17
5.52088e-24
1.35261e-17
5.25517e-24
1.35261e-17
3.80128e-24
1.35261e-17
2.33694e-24
1.35261e-17
4.01786e-24
1.35261e-17
1.16618e-23
1.3526e-17
2.85022e-23
1.3526e-17
5.83132e-23
1.35259e-17
1.09019e-22
1.35257e-17
1.93503e-22
1.35254e-17
3.32741e-22
1.35248e-17
5.53209e-22
1.3524e-17
8.95921e-22
1.35226e-17
1.42951e-21
1.35206e-17
2.19152e-21
1.35176e-17
3.15667e-21
1.35127e-17
5.12713e-21
6.45606e-21
1.42269e-17
1.37284e-20
9.61419e-20
1.42564e-17
-3.74015e-21
-2.55185e-20
1.42501e-17
2.14092e-21
4.49542e-21
1.42521e-17
-8.3894e-22
-9.8999e-22
1.42576e-17
-9.08543e-22
-4.44369e-21
1.42589e-17
-4.22345e-22
-7.70475e-22
1.42599e-17
-4.10691e-22
-6.61375e-22
1.4261e-17
-3.30363e-22
-8.38402e-22
1.42616e-17
-2.02044e-22
-5.03952e-22
1.4262e-17
-1.1854e-22
-3.08603e-22
1.42623e-17
-6.29549e-23
-2.5673e-22
1.42624e-17
-1.01175e-23
-1.95525e-22
1.42626e-17
3.03557e-23
-1.43848e-22
1.42626e-17
5.95484e-23
-1.0218e-22
1.42626e-17
7.68709e-23
-7.7591e-23
1.42626e-17
8.56907e-23
-5.41435e-23
1.42626e-17
8.70814e-23
-3.66145e-23
1.42626e-17
8.47592e-23
-2.16889e-23
1.42625e-17
7.92817e-23
-1.01836e-23
1.42625e-17
7.24826e-23
-8.28865e-25
1.42625e-17
6.43754e-23
6.33297e-24
1.42624e-17
5.52688e-23
1.21192e-23
1.42624e-17
4.55987e-23
1.69368e-23
1.42624e-17
3.59073e-23
2.14078e-23
1.42624e-17
2.62567e-23
2.56703e-23
1.42623e-17
1.77336e-23
2.83672e-23
1.42623e-17
1.1681e-23
3.11066e-23
1.42623e-17
7.54478e-24
3.10497e-23
1.42623e-17
5.48594e-24
3.10397e-23
1.42623e-17
3.85508e-24
2.8743e-23
1.42623e-17
3.08879e-24
2.72901e-23
1.42623e-17
2.18531e-24
2.43204e-23
1.42623e-17
1.88914e-24
2.28251e-23
1.42623e-17
1.50222e-24
2.01757e-23
1.42623e-17
1.76854e-24
1.90741e-23
1.42623e-17
1.65457e-24
1.67213e-23
1.42623e-17
1.73038e-24
1.58831e-23
1.42623e-17
1.73252e-24
1.379e-23
1.42623e-17
2.84292e-24
1.25001e-23
1.42623e-17
4.43049e-24
9.41515e-24
1.42623e-17
6.61448e-24
7.44206e-24
1.42623e-17
7.46702e-24
5.56961e-24
1.42623e-17
6.48679e-24
5.02566e-24
1.42624e-17
4.34978e-24
4.42926e-24
1.42624e-17
2.70869e-24
5.44208e-24
1.42624e-17
1.83009e-24
5.29226e-24
1.42624e-17
2.02349e-24
5.90789e-24
1.42624e-17
2.21732e-24
4.75145e-24
1.42624e-17
2.77533e-24
4.93374e-24
1.42624e-17
2.74252e-24
3.79179e-24
1.42624e-17
2.62934e-24
4.27551e-24
1.42624e-17
2.373e-24
3.56024e-24
1.42624e-17
3.12611e-24
3.73663e-24
1.42624e-17
4.38007e-24
1.93393e-24
1.42624e-17
6.19403e-24
1.29968e-24
1.42624e-17
6.82916e-24
8.12744e-25
1.42624e-17
5.67202e-24
1.59733e-24
1.42624e-17
3.64484e-24
2.15781e-24
1.42624e-17
2.34483e-24
3.89041e-24
1.42624e-17
2.6525e-24
3.63948e-24
1.42624e-17
4.09871e-24
3.75263e-24
1.42624e-17
4.66787e-24
3.33105e-24
1.42624e-17
3.69248e-24
3.7439e-24
1.42624e-17
2.13361e-24
3.72399e-24
1.42624e-17
1.3037e-24
4.67831e-24
1.42624e-17
1.767e-24
4.21727e-24
1.42624e-17
3.16477e-24
3.7871e-24
1.42624e-17
4.73622e-24
2.55773e-24
1.42624e-17
5.97164e-24
1.21921e-24
1.42624e-17
7.10448e-24
-1.80086e-25
1.42624e-17
8.05299e-24
-1.55021e-24
1.42624e-17
9.08153e-24
-2.41589e-24
1.42624e-17
9.8014e-24
-3.29164e-24
1.42624e-17
1.03428e-23
-3.62547e-24
1.42624e-17
1.03587e-23
-3.9903e-24
1.42624e-17
1.01041e-23
-3.90501e-24
1.42624e-17
9.31727e-24
-4.03395e-24
1.42624e-17
8.34249e-24
-3.92139e-24
1.42624e-17
6.84741e-24
-3.81406e-24
1.42624e-17
4.9257e-24
-2.97659e-24
1.42624e-17
2.40963e-24
-1.73432e-24
1.42624e-17
1.63389e-25
-1.52402e-24
1.42624e-17
-4.49605e-25
-7.13989e-25
1.42624e-17
1.15406e-24
-2.6582e-24
1.42624e-17
4.72963e-24
-4.25502e-24
1.42624e-17
8.0444e-24
-5.73102e-24
1.42624e-17
1.10818e-23
-4.8994e-24
1.42624e-17
1.54535e-23
-1.78262e-24
1.42623e-17
2.4158e-23
7.7404e-24
1.42623e-17
3.96842e-23
2.39931e-23
1.42622e-17
6.40047e-23
5.39172e-23
1.4262e-17
9.85588e-23
1.04758e-22
1.42616e-17
1.4615e-22
1.91453e-22
1.42611e-17
2.12496e-22
3.32202e-22
1.42602e-17
3.03386e-22
5.59774e-22
1.42589e-17
4.28984e-22
9.36393e-22
1.42568e-17
5.91817e-22
1.50386e-21
1.42537e-17
7.74413e-22
2.2539e-21
1.42486e-17
1.10545e-21
4.04442e-21
1.33817e-21
5.46705e-21
2.39596e-17
1.88363e-20
1.19393e-19
2.39934e-17
-2.6329e-21
-3.45833e-20
2.39889e-17
6.12724e-22
6.54625e-21
2.39913e-17
-1.28611e-21
-1.54611e-21
2.39988e-17
-1.68102e-21
-6.48226e-21
2.40008e-17
-9.04789e-22
-1.45981e-21
2.40023e-17
-7.08402e-22
-1.2186e-21
2.40039e-17
-5.85813e-22
-1.44337e-21
2.40048e-17
-3.71029e-22
-8.82109e-22
2.40054e-17
-2.24407e-22
-5.6888e-22
2.40058e-17
-1.06599e-22
-4.35086e-22
2.40061e-17
-1.6003e-23
-3.32256e-22
2.40063e-17
6.36722e-23
-2.21238e-22
2.40064e-17
1.15965e-22
-1.53502e-22
2.40064e-17
1.51006e-22
-9.94682e-23
2.40064e-17
1.66432e-22
-6.46026e-23
2.40064e-17
1.71364e-22
-3.31557e-23
2.40064e-17
1.66642e-22
-1.19112e-23
2.40063e-17
1.5717e-22
4.75692e-24
2.40063e-17
1.42505e-22
1.69414e-23
2.40062e-17
1.25245e-22
2.55564e-23
2.40062e-17
1.05374e-22
3.23169e-23
2.40061e-17
8.47867e-23
3.71669e-23
2.40061e-17
6.39958e-23
4.19528e-23
2.40061e-17
4.41485e-23
4.40397e-23
2.4006e-17
2.81986e-23
4.77825e-23
2.4006e-17
1.48703e-23
4.78404e-23
2.4006e-17
8.09859e-24
4.98382e-23
2.4006e-17
2.81753e-24
4.56347e-23
2.4006e-17
1.1856e-24
4.48863e-23
2.4006e-17
-1.53191e-24
3.91761e-23
2.4006e-17
-2.08573e-24
3.79309e-23
2.4006e-17
-4.08455e-24
3.25637e-23
2.4006e-17
-3.8388e-24
3.18748e-23
2.4006e-17
-4.82927e-24
2.72584e-23
2.4006e-17
-4.29371e-24
2.73078e-23
2.4006e-17
-5.4799e-24
2.32239e-23
2.4006e-17
-3.99461e-24
2.32452e-23
2.4006e-17
-2.7526e-24
1.89354e-23
2.4006e-17
1.32027e-24
1.80076e-23
2.4006e-17
3.96545e-24
1.44266e-23
2.4006e-17
5.53909e-24
1.40397e-23
2.4006e-17
3.53456e-24
1.14636e-23
2.4006e-17
9.25022e-25
1.19462e-23
2.40061e-17
-2.04049e-24
1.0269e-23
2.40061e-17
-1.61194e-24
1.26418e-23
2.40061e-17
-1.63966e-24
1.02183e-23
2.40061e-17
4.55462e-25
1.15254e-23
2.40061e-17
6.53105e-25
8.42859e-24
2.40061e-17
1.75903e-24
1.00603e-23
2.40061e-17
4.91374e-25
7.37902e-24
2.40061e-17
1.57156e-24
9.18777e-24
2.40061e-17
1.99117e-24
6.44004e-24
2.40061e-17
5.2293e-24
7.37368e-24
2.40061e-17
7.02268e-24
5.33869e-24
2.40061e-17
7.97985e-24
6.76273e-24
2.40061e-17
5.36478e-24
5.64559e-24
2.40061e-17
2.47141e-24
7.45742e-24
2.40061e-17
-2.59098e-26
6.67874e-24
2.40061e-17
1.59537e-24
9.09684e-24
2.40061e-17
3.10629e-24
7.92665e-24
2.40061e-17
4.16831e-24
9.00131e-24
2.40061e-17
2.14805e-24
7.30391e-24
2.40061e-17
-5.47598e-26
8.08379e-24
2.40061e-17
-1.49447e-24
6.57953e-24
2.40061e-17
3.87509e-25
7.72632e-24
2.40061e-17
3.03354e-24
5.73636e-24
2.40061e-17
6.71655e-24
4.77162e-24
2.40061e-17
9.56275e-24
2.61739e-24
2.40061e-17
1.19616e-23
7.68887e-25
2.40061e-17
1.42409e-23
-8.36111e-25
2.40061e-17
1.61656e-23
-1.88774e-24
2.40061e-17
1.78327e-23
-2.88123e-24
2.40061e-17
1.86721e-23
-3.27954e-24
2.40061e-17
1.87565e-23
-3.60642e-24
2.40061e-17
1.77805e-23
-3.33327e-24
2.40061e-17
1.58865e-23
-3.1538e-24
2.40061e-17
1.32236e-23
-2.56728e-24
2.40061e-17
9.92931e-24
-2.23791e-24
2.40061e-17
6.03148e-24
-9.3969e-25
2.40061e-17
1.55037e-24
-1.38207e-24
2.40061e-17
-1.25399e-24
5.10298e-25
2.40061e-17
-2.65282e-24
-1.46351e-24
2.40061e-17
1.6137e-24
4.49696e-25
2.40061e-17
6.65266e-24
-1.26294e-24
2.40061e-17
1.22265e-23
1.79737e-24
2.40061e-17
1.62166e-23
5.91378e-24
2.40061e-17
2.31323e-23
2.02691e-23
2.4006e-17
3.62353e-23
4.35457e-23
2.40059e-17
6.15547e-23
8.85492e-23
2.40057e-17
9.92343e-23
1.5739e-22
2.40054e-17
1.54032e-22
2.70577e-22
2.40049e-17
2.30097e-22
4.45056e-22
2.4004e-17
3.37309e-22
7.15299e-22
2.40027e-17
4.87639e-22
1.12425e-21
2.40007e-17
6.97046e-22
1.76285e-21
2.39977e-17
9.66785e-22
2.66791e-21
2.39933e-17
1.29997e-21
3.80077e-21
2.39864e-17
1.78134e-21
6.24831e-21
1.90337e-21
7.88193e-21
2.92239e-17
2.58486e-20
1.21452e-19
2.92585e-17
-3.92554e-21
-3.28855e-20
2.92519e-17
-1.81323e-22
7.93134e-21
2.92551e-17
-1.41426e-21
-2.4881e-21
2.92631e-17
-2.29977e-21
-7.19095e-21
2.92651e-17
-9.61155e-22
-1.84565e-21
2.92667e-17
-6.47612e-22
-1.73183e-21
2.92684e-17
-5.40205e-22
-1.88062e-21
2.92694e-17
-3.2338e-22
-1.23202e-21
2.92701e-17
-1.35285e-22
-8.07014e-22
2.92705e-17
-2.38646e-23
-6.35749e-22
2.92709e-17
8.16464e-23
-4.62831e-22
2.92711e-17
1.59704e-22
-3.21967e-22
2.92712e-17
2.21492e-22
-2.13534e-22
2.92712e-17
2.52123e-22
-1.44927e-22
2.92712e-17
2.66006e-22
-8.85823e-23
2.92712e-17
2.62476e-22
-4.81898e-23
2.92712e-17
2.49892e-22
-1.68293e-23
2.92711e-17
2.29545e-22
5.45014e-24
2.92711e-17
2.03799e-22
2.21907e-23
2.9271e-17
1.73585e-22
3.51566e-23
2.9271e-17
1.41285e-22
4.42478e-23
2.92709e-17
1.0851e-22
5.11977e-23
2.92709e-17
7.66206e-23
5.53392e-23
2.92709e-17
4.8507e-23
5.99822e-23
2.92709e-17
2.313e-23
6.1488e-23
2.92708e-17
7.16456e-24
6.50651e-23
2.92708e-17
-5.81754e-24
6.24492e-23
2.92708e-17
-1.00475e-23
6.24945e-23
2.92708e-17
-1.55888e-23
5.58632e-23
2.92708e-17
-1.61246e-23
5.38977e-23
2.92708e-17
-2.00243e-23
4.69999e-23
2.92708e-17
-1.99267e-23
4.55221e-23
2.92708e-17
-2.26086e-23
3.9619e-23
2.92708e-17
-2.13589e-23
3.90029e-23
2.92708e-17
-2.34341e-23
3.44144e-23
2.92708e-17
-2.18855e-23
3.4257e-23
2.92708e-17
-2.20878e-23
2.93982e-23
2.92709e-17
-1.70921e-23
2.88205e-23
2.92709e-17
-1.38474e-23
2.40065e-23
2.92709e-17
-8.23987e-24
2.28571e-23
2.92709e-17
-7.04421e-24
1.96328e-23
2.92709e-17
-7.51723e-24
1.90529e-23
2.92709e-17
-1.14617e-23
1.64705e-23
2.92709e-17
-1.17567e-23
1.8777e-23
2.92709e-17
-1.27866e-23
1.67677e-23
2.92709e-17
-9.04091e-24
1.86579e-23
2.92709e-17
-8.4936e-24
1.48387e-23
2.92709e-17
-5.13146e-24
1.60627e-23
2.92709e-17
-6.41842e-24
1.29765e-23
2.92709e-17
-4.97993e-24
1.4586e-23
2.92709e-17
-6.24534e-24
1.14795e-23
2.92709e-17
-2.82081e-24
1.31411e-23
2.92709e-17
-1.5879e-24
1.02619e-23
2.92709e-17
2.35578e-24
1.13563e-23
2.92709e-17
1.94894e-24
9.89585e-24
2.92709e-17
7.93336e-26
1.06914e-23
2.92709e-17
-4.98309e-24
9.37988e-24
2.92709e-17
-6.03766e-24
1.27027e-23
2.92709e-17
-6.47663e-24
1.21683e-23
2.92709e-17
-2.93175e-24
1.38295e-23
2.92709e-17
-2.78793e-24
1.19069e-23
2.92709e-17
-3.89422e-24
1.13848e-23
2.92709e-17
-7.23841e-24
8.98582e-24
2.92709e-17
-6.84037e-24
1.02399e-23
2.92709e-17
-5.25867e-24
8.65438e-24
2.9271e-17
1.45343e-25
8.38057e-24
2.9271e-17
5.27215e-24
5.73453e-24
2.9271e-17
1.0345e-23
2.92862e-24
2.9271e-17
1.47895e-23
7.58976e-26
2.9271e-17
1.87692e-23
-1.98124e-24
2.9271e-17
2.24795e-23
-3.54548e-24
2.9271e-17
2.52308e-23
-4.49734e-24
2.9271e-17
2.69296e-23
-5.1446e-24
2.9271e-17
2.69582e-23
-5.09461e-24
2.9271e-17
2.53689e-23
-4.71454e-24
2.9271e-17
2.20652e-23
-3.77072e-24
2.9271e-17
1.75873e-23
-2.88957e-24
2.9271e-17
1.26389e-23
-1.51852e-24
2.9271e-17
7.04283e-24
-1.30203e-24
2.9271e-17
2.59905e-24
5.95493e-25
2.9271e-17
-2.90315e-24
-5.96631e-25
2.9271e-17
-2.6319e-24
2.76982e-24
2.9271e-17
-1.57487e-24
2.09493e-24
2.9271e-17
5.02315e-24
6.27895e-24
2.9271e-17
7.88646e-24
1.00536e-23
2.9271e-17
9.8255e-24
2.25662e-23
2.92709e-17
9.3907e-24
4.45773e-23
2.92709e-17
1.51137e-23
8.96841e-23
2.92707e-17
2.57405e-23
1.59374e-22
2.92705e-17
4.72744e-23
2.72578e-22
2.92702e-17
7.58587e-23
4.43199e-22
2.92696e-17
1.17627e-22
7.03513e-22
2.92686e-17
1.77201e-22
1.08795e-21
2.92672e-17
2.6771e-22
1.65289e-21
2.9265e-17
4.04837e-22
2.48552e-21
2.92618e-17
6.01011e-22
3.62095e-21
2.92572e-17
8.80399e-22
4.98039e-21
2.92499e-17
1.43983e-21
7.67102e-21
1.66604e-21
9.22275e-21
3.54959e-17
5.36716e-20
1.17853e-19
3.55408e-17
-1.58981e-20
-3.21754e-20
3.55318e-17
7.4796e-24
9.72522e-21
3.5535e-17
-4.33909e-22
-3.41598e-21
3.55439e-17
-2.66825e-21
-8.07006e-21
3.55457e-17
-2.30746e-22
-2.39228e-21
3.55472e-17
-7.89096e-25
-2.34642e-21
3.55491e-17
-2.1726e-22
-2.45567e-21
3.55503e-17
6.13093e-24
-1.65161e-21
3.5551e-17
1.49154e-22
-1.11727e-21
3.55515e-17
2.20685e-22
-8.53279e-22
3.55519e-17
2.83057e-22
-6.27908e-22
3.55522e-17
3.54137e-22
-4.38504e-22
3.55523e-17
3.88688e-22
-3.0051e-22
3.55524e-17
4.04982e-22
-2.07037e-22
3.55524e-17
3.94907e-22
-1.34276e-22
3.55524e-17
3.76918e-22
-7.98029e-23
3.55523e-17
3.43949e-22
-3.75979e-23
3.55523e-17
3.08655e-22
-5.84857e-24
3.55522e-17
2.64686e-22
1.84043e-23
3.55522e-17
2.19224e-22
3.72425e-23
3.55521e-17
1.70442e-22
5.23657e-23
3.55521e-17
1.2455e-22
6.44896e-23
3.5552e-17
8.16829e-23
7.41356e-23
3.5552e-17
4.28068e-23
8.14553e-23
3.5552e-17
1.40361e-23
8.72382e-23
3.5552e-17
-1.00309e-23
8.97402e-23
3.5552e-17
-2.11102e-23
9.0082e-23
3.5552e-17
-3.16426e-23
8.60929e-23
3.5552e-17
-3.44516e-23
7.99588e-23
3.5552e-17
-4.05063e-23
7.33136e-23
3.5552e-17
-4.11818e-23
6.70597e-23
3.5552e-17
-4.56077e-23
6.15528e-23
3.5552e-17
-4.49829e-23
5.6907e-23
3.5552e-17
-4.72278e-23
5.30087e-23
3.5552e-17
-4.58335e-23
4.97982e-23
3.5552e-17
-4.75794e-23
4.69244e-23
3.5552e-17
-4.26396e-23
4.43123e-23
3.5552e-17
-3.98371e-23
4.09103e-23
3.5552e-17
-3.2652e-23
3.69823e-23
3.5552e-17
-2.80041e-23
3.31612e-23
3.5552e-17
-2.37951e-23
2.94075e-23
3.5552e-17
-2.51468e-23
2.67436e-23
3.5552e-17
-2.49997e-23
2.63328e-23
3.55521e-17
-2.65342e-23
2.78419e-23
3.55521e-17
-2.1446e-23
2.89876e-23
3.55521e-17
-2.03273e-23
2.77094e-23
3.55521e-17
-1.57191e-23
2.53123e-23
3.55521e-17
-1.61888e-23
2.32499e-23
3.55521e-17
-1.41455e-23
2.16421e-23
3.55521e-17
-1.67631e-23
2.05993e-23
3.55521e-17
-1.35539e-23
2.01434e-23
3.55521e-17
-1.36701e-23
1.91172e-23
3.55521e-17
-9.37305e-24
1.75827e-23
3.55521e-17
-7.92921e-24
1.62465e-23
3.55521e-17
-6.26239e-24
1.47335e-23
3.55521e-17
-9.74839e-24
1.39429e-23
3.55521e-17
-1.22947e-23
1.51993e-23
3.55521e-17
-1.63444e-23
1.83623e-23
3.55521e-17
-1.35631e-23
2.05245e-23
3.55521e-17
-1.20491e-23
2.00381e-23
3.55521e-17
-1.02113e-23
1.74873e-23
3.55521e-17
-1.29572e-23
1.47331e-23
3.55521e-17
-1.44063e-23
1.36656e-23
3.55521e-17
-1.5438e-23
1.45464e-23
3.55521e-17
-1.11165e-23
1.44555e-23
3.55521e-17
-5.61248e-24
1.24865e-23
3.55521e-17
1.65379e-24
8.63437e-24
3.55521e-17
9.35324e-24
3.71361e-24
3.55522e-17
1.59028e-23
-7.66224e-25
3.55522e-17
2.29576e-23
-4.084e-24
3.55522e-17
2.83235e-23
-6.51509e-24
3.55522e-17
3.32003e-23
-8.22893e-24
3.55522e-17
3.52318e-23
-9.14964e-24
3.55522e-17
3.57728e-23
-9.15408e-24
3.55521e-17
3.30439e-23
-8.34125e-24
3.55521e-17
2.84847e-23
-6.74695e-24
3.55521e-17
2.22348e-23
-4.74638e-24
3.55521e-17
1.58455e-23
-2.60348e-24
3.55521e-17
1.07726e-23
-6.06824e-25
3.55522e-17
4.30609e-24
1.29396e-24
3.55522e-17
1.64348e-24
3.90168e-24
3.55522e-17
-3.08022e-24
6.90257e-24
3.55522e-17
-3.7778e-25
1.0092e-23
3.55522e-17
5.75785e-25
1.33499e-23
3.55522e-17
9.68812e-25
1.98231e-23
3.55522e-17
-7.04707e-24
3.63826e-23
3.55521e-17
-1.80617e-23
7.15797e-23
3.5552e-17
-3.61297e-23
1.35154e-22
3.55519e-17
-5.36593e-23
2.36116e-22
3.55516e-17
-8.11197e-23
3.91329e-22
3.55512e-17
-1.191e-22
6.2631e-22
3.55505e-17
-1.75659e-22
9.79097e-22
3.55494e-17
-2.51402e-22
1.49617e-21
3.55478e-17
-3.50803e-22
2.2395e-21
3.55454e-17
-4.5499e-22
3.30286e-21
3.55418e-17
-5.57755e-22
4.7128e-21
3.5537e-17
-6.54429e-22
6.36668e-21
3.55292e-17
-1.22464e-22
9.32879e-21
5.89324e-22
1.07774e-20
5.29643e-17
6.28498e-21
9.73269e-20
5.29323e-17
3.55507e-22
-6.62225e-21
5.29358e-17
-1.39929e-21
4.83924e-21
5.29416e-17
-1.0557e-21
-4.75142e-21
5.29446e-17
-1.24921e-21
-8.3799e-21
5.29484e-17
-6.20073e-22
-4.40507e-21
5.29514e-17
-3.65455e-22
-3.85689e-21
5.29533e-17
-2.49951e-22
-3.41873e-21
5.29548e-17
-6.87317e-23
-2.42544e-21
5.29559e-17
1.036e-22
-1.71323e-21
5.29567e-17
2.33222e-22
-1.25999e-21
5.29572e-17
3.36396e-22
-9.08107e-22
5.29576e-17
4.07521e-22
-6.30186e-22
5.29578e-17
4.47469e-22
-4.35009e-22
5.29579e-17
4.60337e-22
-2.93562e-22
5.2958e-17
4.54279e-22
-1.87858e-22
5.2958e-17
4.32183e-22
-1.0706e-22
5.2958e-17
3.98195e-22
-4.63022e-23
5.29579e-17
3.54586e-22
-1.23459e-24
5.29578e-17
3.06115e-22
3.30972e-23
5.29578e-17
2.54698e-22
6.00236e-23
5.29577e-17
2.04322e-22
8.32898e-23
5.29577e-17
1.57193e-22
1.0302e-22
5.29576e-17
1.15303e-22
1.19979e-22
5.29576e-17
8.09289e-23
1.33534e-22
5.29576e-17
5.28859e-23
1.42375e-22
5.29576e-17
3.14921e-23
1.46225e-22
5.29576e-17
1.29366e-23
1.43697e-22
5.29576e-17
-1.27523e-24
1.34992e-22
5.29576e-17
-1.32324e-23
1.2382e-22
5.29576e-17
-2.12637e-23
1.11468e-22
5.29576e-17
-2.80714e-23
1.0103e-22
5.29576e-17
-3.25042e-23
9.10912e-23
5.29576e-17
-3.69154e-23
8.36797e-23
5.29576e-17
-3.94825e-23
7.72561e-23
5.29576e-17
-4.10429e-23
7.3207e-23
5.29576e-17
-3.936e-23
6.93914e-23
5.29576e-17
-3.71584e-23
6.61885e-23
5.29577e-17
-3.40629e-23
6.11343e-23
5.29577e-17
-3.24425e-23
5.57077e-23
5.29577e-17
-3.10587e-23
4.90416e-23
5.29577e-17
-2.95992e-23
4.36277e-23
5.29577e-17
-2.58489e-23
4.06936e-23
5.29577e-17
-2.06485e-23
4.22648e-23
5.29577e-17
-1.43566e-23
4.50206e-23
5.29577e-17
-1.09562e-23
4.6557e-23
5.29577e-17
-9.1589e-24
4.39662e-23
5.29577e-17
-1.01144e-23
4.04389e-23
5.29577e-17
-1.0922e-23
3.59899e-23
5.29577e-17
-1.20357e-23
3.38289e-23
5.29578e-17
-1.08873e-23
3.23834e-23
5.29578e-17
-1.01794e-23
3.18818e-23
5.29578e-17
-9.10211e-24
2.9916e-23
5.29578e-17
-9.81407e-24
2.77125e-23
5.29578e-17
-1.06162e-23
2.41075e-23
5.29577e-17
-1.12497e-23
2.16245e-23
5.29577e-17
-9.57868e-24
2.1755e-23
5.29577e-17
-7.10864e-24
2.61064e-23
5.29578e-17
-4.44339e-24
3.07314e-23
5.29578e-17
-4.78847e-24
3.31944e-23
5.29578e-17
-6.68205e-24
3.07486e-23
5.29578e-17
-9.43602e-24
2.62427e-23
5.29578e-17
-1.03123e-23
2.2874e-23
5.29578e-17
-9.80956e-24
2.29197e-23
5.29578e-17
-7.66672e-24
2.41063e-23
5.29578e-17
-5.43175e-24
2.42289e-23
5.29578e-17
-2.30193e-24
2.00432e-23
5.29578e-17
2.00481e-24
1.32696e-23
5.29578e-17
7.39632e-24
5.31796e-24
5.29578e-17
1.39215e-23
-1.5948e-24
5.29579e-17
2.00865e-23
-7.18034e-24
5.29579e-17
2.56083e-23
-1.12369e-23
5.29579e-17
2.93624e-23
-1.43104e-23
5.29578e-17
3.15341e-23
-1.57416e-23
5.29578e-17
3.12475e-23
-1.59708e-23
5.29578e-17
2.9002e-23
-1.43974e-23
5.29578e-17
2.48548e-23
-1.15975e-23
5.29578e-17
2.01648e-23
-7.56652e-24
5.29578e-17
1.61947e-23
-3.48744e-24
5.29578e-17
1.39528e-23
9.37259e-25
5.29578e-17
1.42043e-23
5.49045e-24
5.29579e-17
1.46567e-23
1.13062e-23
5.29579e-17
1.44039e-23
1.57944e-23
5.29579e-17
9.95578e-24
1.86137e-23
5.29579e-17
2.83942e-24
2.03637e-23
5.29579e-17
-6.08362e-24
2.92868e-23
5.29578e-17
-1.55264e-23
5.44609e-23
5.29578e-17
-2.80745e-23
1.08491e-22
5.29576e-17
-4.61721e-23
2.01508e-22
5.29574e-17
-7.38084e-23
3.49992e-22
5.2957e-17
-1.11161e-22
5.79277e-22
5.29563e-17
-1.58726e-22
9.30971e-22
5.29552e-17
-2.16257e-22
1.4613e-21
5.29536e-17
-2.85445e-22
2.24311e-21
5.29512e-17
-3.66103e-22
3.36776e-21
5.29478e-17
-4.53447e-22
4.95307e-21
5.2943e-17
-5.40673e-22
7.04821e-21
5.29365e-17
-5.99085e-22
9.66479e-21
5.29288e-17
-4.41829e-22
1.31987e-20
-2.27916e-22
1.43017e-20
5.81812e-17
-8.59843e-21
9.52683e-20
5.8157e-17
-2.95868e-21
-4.78069e-21
5.81599e-17
-8.80409e-22
5.69172e-21
5.8166e-17
-8.42048e-22
-5.30074e-21
5.81694e-17
-3.61268e-22
-8.97768e-21
5.81734e-17
-6.17706e-22
-4.88306e-21
5.81765e-17
-5.21854e-22
-4.1869e-21
5.81787e-17
-2.80383e-22
-3.67432e-21
5.81803e-17
-1.054e-22
-2.60492e-21
5.81815e-17
5.70766e-23
-1.81417e-21
5.81824e-17
2.0988e-22
-1.31079e-21
5.8183e-17
3.22384e-22
-9.17913e-22
5.81834e-17
3.95122e-22
-6.14583e-22
5.81836e-17
4.32347e-22
-4.00868e-22
5.81838e-17
4.4603e-22
-2.50698e-22
5.81838e-17
4.39615e-22
-1.40719e-22
5.81838e-17
4.19379e-22
-5.87487e-23
5.81838e-17
3.85514e-22
8.80429e-25
5.81838e-17
3.43156e-22
4.34121e-23
5.81837e-17
2.95598e-22
7.3293e-23
5.81837e-17
2.46986e-22
9.5593e-23
5.81836e-17
1.99993e-22
1.13297e-22
5.81836e-17
1.57159e-22
1.27965e-22
5.81836e-17
1.20386e-22
1.39966e-22
5.81835e-17
9.0737e-23
1.49814e-22
5.81835e-17
6.73912e-23
1.56316e-22
5.81836e-17
4.71794e-23
1.57801e-22
5.81836e-17
2.87655e-23
1.52163e-22
5.81835e-17
1.19778e-23
1.41452e-22
5.81835e-17
-1.56544e-24
1.27811e-22
5.81835e-17
-1.21722e-23
1.14342e-22
5.81835e-17
-1.99319e-23
1.0199e-22
5.81835e-17
-2.62182e-23
9.15307e-23
5.81835e-17
-3.12419e-23
8.30097e-23
5.81835e-17
-3.5093e-23
7.74126e-23
5.81835e-17
-3.62037e-23
7.32549e-23
5.81836e-17
-3.51894e-23
7.03214e-23
5.81836e-17
-3.30538e-23