/*--------------------------------*- C++ -*----------------------------------*\
| =========                 |                                                 |
| \\      /  F ield         | OpenFOAM: The Open Source CFD Toolbox           |
|  \\    /   O peration     | Version:  2412                                  |
|   \\  /    A nd           | Website:  www.openfoam.com                      |
|    \\/     M anipulation  |                                                 |
\*---------------------------------------------------------------------------*/
FoamFile
{
    version     2.0;
    format      ascii;
    arch        "LSB;label=32;scalar=64";
    class       surfaceScalarField;
    location    "50";
    object      phi;
}
// * * * * * * * * * * * * * * * * * * * * * * * * * * * * * * * * * * * * * //

dimensions      [0 3 -1 0 0 0 0];

oriented        oriented;

internalField   nonuniform List<scalar> 
9663
(
5.43046e-18
3.6744e-21
6.97615e-20
5.45481e-18
-2.15351e-21
-2.19509e-20
5.45114e-18
1.43502e-21
2.44933e-21
5.44997e-18
3.12993e-23
1.25609e-21
5.45268e-18
-1.35496e-22
-2.62145e-21
5.45263e-18
6.88664e-23
-7.35108e-23
5.45236e-18
2.33536e-23
2.2861e-22
5.45248e-18
8.62199e-25
-1.18163e-22
5.45253e-18
7.4312e-24
-4.20788e-23
5.45253e-18
5.67016e-24
1.56896e-23
5.45254e-18
6.63496e-24
1.52307e-23
5.45256e-18
8.01506e-24
2.13004e-24
5.45258e-18
9.01273e-24
7.65462e-24
5.45259e-18
7.98711e-24
5.486e-24
5.45259e-18
7.29097e-24
7.02734e-24
5.45259e-18
6.49712e-24
4.06288e-24
5.45259e-18
6.1728e-24
4.51128e-24
5.4526e-18
6.49732e-24
2.11108e-24
5.45261e-18
6.90174e-24
2.83464e-25
5.45262e-18
7.84081e-24
1.68514e-24
5.45263e-18
7.04522e-24
7.08422e-25
5.45265e-18
6.97933e-24
1.21687e-24
5.45267e-18
5.70629e-24
-1.15549e-24
5.45269e-18
4.96126e-24
1.22105e-24
5.45269e-18
2.87999e-24
1.76849e-24
5.4527e-18
2.00704e-24
3.57796e-24
5.45271e-18
1.4175e-24
1.55782e-24
5.45272e-18
1.421e-24
-1.21223e-24
5.45273e-18
2.23474e-24
-1.84077e-24
5.45274e-18
1.03665e-24
8.9779e-25
5.45274e-18
-4.14162e-26
2.72473e-24
5.45274e-18
-4.01588e-25
2.45715e-24
5.45274e-18
-4.25515e-25
-8.5541e-25
5.45274e-18
3.36962e-25
1.93194e-25
5.45274e-18
-1.74019e-25
3.29855e-25
5.45274e-18
3.92126e-26
-9.57202e-26
5.45275e-18
4.47903e-25
-1.68343e-24
5.45275e-18
1.31964e-24
4.68408e-25
5.45275e-18
4.82295e-25
1.66991e-24
5.45275e-18
2.75721e-25
3.55898e-24
5.45275e-18
-1.59791e-25
2.11859e-24
5.45275e-18
-4.5516e-26
-1.58091e-24
5.45276e-18
2.97589e-25
-1.56299e-24
5.45276e-18
-1.52236e-24
1.35644e-24
5.45275e-18
-2.85882e-24
3.4938e-24
5.45274e-18
-3.34101e-24
2.89649e-24
5.45274e-18
-3.07812e-24
-1.73223e-24
5.45274e-18
-1.81061e-24
-9.24177e-25
5.45273e-18
-1.91652e-24
-8.21933e-27
5.45273e-18
-1.35837e-24
1.04984e-25
5.45272e-18
-9.41915e-25
-1.03578e-24
5.45272e-18
-1.55055e-25
1.0531e-24
5.45272e-18
-7.14092e-25
1.08223e-25
5.45271e-18
-3.1447e-25
2.15371e-24
5.4527e-18
-1.24278e-24
1.11356e-24
5.4527e-18
-8.62514e-25
4.58726e-25
5.4527e-18
-4.57164e-25
-2.68131e-24
5.4527e-18
2.16941e-25
1.8972e-24
5.4527e-18
-1.26124e-24
1.13194e-24
5.4527e-18
-1.5144e-24
2.9782e-24
5.4527e-18
-2.8447e-24
-2.11285e-25
5.4527e-18
-2.67623e-24
-9.04612e-25
5.4527e-18
-2.68858e-24
-2.40914e-24
5.4527e-18
-1.84451e-24
-1.80617e-24
5.45271e-18
-1.84371e-24
-1.53422e-24
5.45271e-18
-1.26019e-24
-1.15097e-24
5.45271e-18
-1.35231e-24
-1.12647e-24
5.45271e-18
-7.44993e-25
-1.34729e-24
5.45272e-18
-6.63438e-25
-1.64504e-24
5.45272e-18
1.08434e-25
-1.99719e-24
5.45273e-18
2.72298e-25
-1.75835e-24
5.45273e-18
8.96865e-25
-2.74519e-25
5.45272e-18
9.24797e-25
5.07204e-25
5.45273e-18
1.93662e-24
-1.96762e-25
5.45274e-18
2.68623e-24
-2.74918e-24
5.45275e-18
3.72102e-24
8.18439e-25
5.45275e-18
2.49e-24
6.04809e-25
5.45276e-18
2.2181e-24
3.63028e-24
5.45275e-18
5.78026e-25
1.33823e-24
5.45276e-18
6.75532e-25
-2.07813e-26
5.45277e-18
1.14978e-24
-3.92681e-24
5.45278e-18
2.10774e-24
7.30176e-27
5.45278e-18
9.89809e-25
6.01114e-25
5.45278e-18
5.14137e-25
3.93288e-24
5.45277e-18
-9.73848e-25
1.78011e-24
5.45277e-18
-8.79032e-25
2.19966e-25
5.45277e-18
-4.74388e-25
-3.48156e-24
5.45278e-18
2.30653e-25
5.83652e-25
5.45278e-18
-1.06922e-24
8.27622e-25
5.45277e-18
-1.33592e-24
2.89155e-24
5.45277e-18
-2.76068e-24
2.72319e-25
5.45276e-18
-2.79363e-24
-4.03536e-25
5.45276e-18
-2.98453e-24
-2.15978e-24
5.45275e-18
-2.26533e-24
-1.04506e-24
5.45275e-18
-2.38445e-24
-2.69343e-24
5.45275e-18
-1.96552e-24
-2.4896e-24
5.45275e-18
-1.09728e-24
3.75037e-24
5.45276e-18
-2.03731e-24
-1.08074e-23
5.45276e-18
-1.70433e-24
3.06101e-24
5.54245e-26
2.06523e-23
7.69592e-18
-3.26968e-21
8.43237e-20
7.725e-18
2.19333e-21
-3.31459e-20
7.72205e-18
-1.337e-21
6.01686e-21
7.71988e-18
-6.81928e-23
2.38509e-21
7.72322e-18
3.57646e-23
-3.53181e-21
7.72334e-18
-8.51723e-23
-3.30626e-23
7.72299e-18
-1.30983e-23
3.52928e-22
7.72312e-18
-1.57773e-24
-1.34316e-22
7.7232e-18
-8.07472e-24
-5.80114e-23
7.7232e-18
-5.12461e-24
2.85931e-23
7.72321e-18
3.11729e-25
2.19197e-23
7.72324e-18
2.85035e-24
1.25037e-23
7.72327e-18
4.10255e-24
1.21739e-23
7.72328e-18
4.21666e-24
1.4483e-23
7.72329e-18
3.93458e-24
1.11253e-23
7.72329e-18
3.52399e-24
1.11165e-23
7.72329e-18
2.91633e-24
8.7429e-24
7.7233e-18
3.05223e-24
8.37615e-24
7.72331e-18
3.38368e-24
5.20613e-24
7.72333e-18
3.92444e-24
6.94581e-24
7.72335e-18
3.35887e-24
6.34023e-24
7.72337e-18
2.95727e-24
5.76264e-24
7.7234e-18
2.15787e-24
2.99716e-24
7.72342e-18
1.92457e-24
3.94646e-24
7.72343e-18
1.09969e-24
4.44914e-24
7.72344e-18
4.60306e-25
5.39478e-24
7.72345e-18
-6.61819e-25
2.92841e-24
7.72346e-18
-5.57666e-26
7.88288e-25
7.72348e-18
-6.24479e-25
-6.49561e-25
7.7235e-18
-4.51926e-27
1.96067e-24
7.7235e-18
-4.58454e-25
3.10385e-24
7.7235e-18
1.12471e-25
2.01967e-24
7.7235e-18
4.11218e-25
-6.75447e-25
7.7235e-18
3.83575e-25
6.02728e-25
7.7235e-18
-5.03988e-25
7.74522e-25
7.7235e-18
-5.11628e-25
7.28045e-25
7.72351e-18
-9.92372e-26
-1.19055e-24
7.72351e-18
6.33116e-25
1.25115e-24
7.72352e-18
4.8622e-25
2.47968e-24
7.72351e-18
1.74346e-25
4.49857e-24
7.72351e-18
-1.15121e-24
1.94699e-24
7.72351e-18
-4.16779e-25
7.13154e-25
7.72352e-18
-1.36995e-24
-2.53662e-24
7.72352e-18
-4.20074e-25
8.43629e-25
7.72351e-18
-1.22777e-24
7.81152e-25
7.7235e-18
-6.57316e-25
1.01242e-24
7.7235e-18
-2.71617e-25
-4.40162e-24
7.7235e-18
9.90959e-26
-1.5211e-24
7.72349e-18
-8.08518e-25
-2.13933e-24
7.72348e-18
-8.46214e-25
7.86875e-25
7.72347e-18
-5.10702e-25
-2.22949e-24
7.72347e-18
4.66568e-25
1.68042e-24
7.72347e-18
6.56535e-25
-8.48476e-25
7.72346e-18
7.05032e-25
2.45111e-24
7.72344e-18
-6.55979e-25
-2.45015e-25
7.72344e-18
-7.70851e-25
1.56253e-24
7.72344e-18
-5.01759e-25
-3.14997e-24
7.72344e-18
4.10812e-25
2.6539e-24
7.72344e-18
2.56721e-26
5.13561e-25
7.72344e-18
-1.98544e-25
2.92634e-24
7.72344e-18
-1.52431e-24
-3.25973e-24
7.72344e-18
-1.50985e-24
-8.94758e-25
7.72344e-18
-2.11316e-24
-5.58393e-24
7.72345e-18
-1.47465e-24
-8.58676e-25
7.72345e-18
-1.82119e-24
-4.08562e-24
7.72345e-18
-1.24788e-24
4.03385e-25
7.72346e-18
-1.57888e-24
-3.44732e-24
7.72346e-18
-9.85108e-25
4.85012e-25
7.72347e-18
-1.2061e-24
-3.64588e-24
7.72347e-18
-4.91176e-25
9.99962e-26
7.72348e-18
-5.50203e-25
-3.04957e-24
7.72348e-18
-1.29628e-25
2.08373e-24
7.72348e-18
-7.03912e-25
9.37171e-25
7.72348e-18
-5.60464e-26
2.98685e-24
7.72349e-18
6.76e-25
-7.85227e-25
7.72351e-18
1.98173e-24
3.08053e-24
7.72352e-18
1.83292e-24
2.66127e-24
7.72352e-18
1.38494e-24
5.09e-24
7.72351e-18
-3.18192e-25
2.20776e-24
7.72352e-18
-3.16448e-25
1.16635e-24
7.72354e-18
-3.36151e-26
-2.82532e-24
7.72355e-18
1.16271e-24
7.56322e-25
7.72356e-18
1.07073e-24
1.89551e-24
7.72355e-18
6.56236e-25
3.75001e-24
7.72354e-18
-7.82124e-25
1.76495e-24
7.72354e-18
-8.04195e-25
2.31672e-25
7.72355e-18
-5.09741e-25
-3.30842e-24
7.72355e-18
4.04458e-25
1.95657e-25
7.72355e-18
2.36198e-25
5.66748e-25
7.72354e-18
-2.60045e-26
1.75523e-24
7.72353e-18
-1.14339e-24
-1.73676e-24
7.72352e-18
-1.32574e-24
-1.57894e-24
7.72352e-18
-1.8685e-24
-4.42807e-24
7.72351e-18
-1.48452e-24
-1.3033e-24
7.72351e-18
-1.7835e-24
-5.23149e-24
7.72352e-18
-1.1117e-24
-2.35779e-24
7.72351e-18
-2.02768e-24
4.8553e-24
7.72353e-18
-5.91999e-26
-1.62621e-23
7.72353e-18
-2.44826e-25
-5.20149e-25
-4.57625e-25
2.33085e-23
5.43055e-18
6.8798e-20
5.45525e-18
-2.22776e-20
5.45119e-18
2.92143e-21
5.44998e-18
1.24071e-21
5.45272e-18
-2.71841e-21
5.45265e-18
-6.83644e-23
5.45236e-18
2.57331e-22
5.45248e-18
-1.33776e-22
5.45253e-18
-5.28769e-23
5.45253e-18
4.55052e-24
5.45254e-18
1.44451e-23
5.45256e-18
8.36941e-25
5.45258e-18
1.01734e-23
5.45259e-18
6.24548e-24
5.45259e-18
9.31194e-24
5.45259e-18
5.38867e-24
5.45259e-18
5.95213e-24
5.4526e-18
3.40005e-24
5.45261e-18
1.96446e-24
5.45262e-18
4.2361e-24
5.45264e-18
2.01084e-24
5.45265e-18
3.03099e-24
5.45267e-18
-9.61625e-25
5.45268e-18
2.49952e-24
5.45269e-18
1.36279e-24
5.4527e-18
4.09577e-24
5.45271e-18
-3.79287e-25
5.45272e-18
-5.06916e-25
5.45273e-18
-3.46388e-24
5.45274e-18
9.73602e-25
5.45274e-18
1.28193e-24
5.45274e-18
2.66296e-24
5.45274e-18
-2.97012e-25
5.45274e-18
1.58184e-24
5.45274e-18
6.73116e-26
5.45274e-18
-2.73803e-25
5.45275e-18
-1.90319e-24
5.45275e-18
1.09514e-24
5.45275e-18
1.1711e-24
5.45275e-18
4.19429e-24
5.45275e-18
-5.01124e-25
5.45275e-18
-3.66983e-25
5.45276e-18
-4.22632e-24
5.45276e-18
1.52459e-24
5.45275e-18
1.12427e-24
5.45274e-18
2.75328e-24
5.45274e-18
-1.71754e-24
5.45274e-18
8.23395e-25
5.45273e-18
-8.75378e-26
5.45273e-18
8.71795e-27
5.45272e-18
-1.4282e-24
5.45272e-18
1.68636e-24
5.45272e-18
-3.30009e-26
5.45271e-18
3.95139e-24
5.4527e-18
1.6612e-25
5.4527e-18
4.09788e-25
5.4527e-18
-3.26119e-24
5.4527e-18
2.97504e-24
5.4527e-18
3.68529e-26
5.4527e-18
3.98945e-24
5.4527e-18
-2.40603e-24
5.4527e-18
-2.70346e-25
5.4527e-18
-4.02222e-24
5.4527e-18
-9.92538e-25
5.45271e-18
-2.94345e-24
5.45271e-18
-5.19999e-25
5.45271e-18
-2.65532e-24
5.45271e-18
-6.9413e-25
5.45272e-18
-3.02313e-24
5.45272e-18
-1.01647e-24
5.45273e-18
-2.32637e-24
5.45273e-18
1.03164e-24
5.45273e-18
-4.28704e-25
5.45273e-18
2.03904e-25
5.45274e-18
-3.0886e-24
5.45275e-18
2.6293e-24
5.45275e-18
8.54079e-25
5.45275e-18
5.73534e-24
5.45275e-18
-1.15519e-25
5.45276e-18
3.08895e-25
5.45277e-18
-4.49981e-24
5.45278e-18
1.66486e-24
5.45278e-18
8.7733e-25
5.45278e-18
5.35867e-24
5.45277e-18
3.98449e-25
5.45277e-18
2.34222e-25
5.45278e-18
-3.99942e-24
5.45278e-18
1.59177e-24
5.45278e-18
3.55731e-25
5.45277e-18
3.92247e-24
5.45277e-18
-1.0534e-24
5.45276e-18
2.31695e-25
5.45276e-18
-3.3575e-24
5.45275e-18
-3.76435e-25
5.45275e-18
-4.22951e-24
5.45275e-18
-2.40081e-24
5.45275e-18
2.32183e-24
5.45276e-18
-9.83498e-24
5.45276e-18
1.18289e-24
2.09824e-23
6.74726e-18
4.97038e-20
4.97882e-20
6.78136e-18
-1.69214e-20
-1.68438e-20
6.77626e-18
2.61627e-21
2.81073e-21
6.77475e-18
7.82453e-22
8.62502e-22
6.77829e-18
-1.88092e-21
-1.71506e-21
6.77799e-18
8.79165e-23
1.08038e-22
6.77761e-18
1.56921e-22
2.06483e-22
6.77784e-18
-1.00303e-22
-1.03887e-22
6.77791e-18
-3.29393e-23
2.10971e-24
6.77789e-18
5.04656e-24
2.43307e-23
6.7779e-18
-1.26396e-24
3.5765e-23
6.77793e-18
-7.82166e-24
1.44706e-23
6.77795e-18
6.03282e-25
2.30975e-23
6.77797e-18
3.54726e-24
1.14226e-23
6.77797e-18
7.55817e-24
1.31321e-23
6.77797e-18
7.94543e-24
6.13591e-24
6.77797e-18
1.00759e-23
5.69403e-24
6.77798e-18
8.93749e-24
5.54824e-24
6.77799e-18
7.532e-24
2.58784e-24
6.77801e-18
8.01909e-24
9.22329e-24
6.77803e-18
7.07239e-24
4.08319e-24
6.77805e-18
6.9404e-24
9.15618e-24
6.77807e-18
4.423e-24
2.18443e-24
6.77809e-18
3.83433e-24
8.82225e-24
6.77811e-18
1.93077e-24
4.5275e-24
6.77811e-18
1.80498e-24
8.49826e-24
6.77812e-18
1.40637e-24
1.64523e-24
6.77813e-18
-6.04444e-25
3.99781e-24
6.77815e-18
-7.61039e-25
5.83467e-25
6.77816e-18
-1.12703e-24
6.51007e-24
6.77817e-18
-1.39046e-24
3.76194e-24
6.77816e-18
-1.9783e-24
5.10857e-24
6.77816e-18
-2.55343e-24
-1.23739e-24
6.77816e-18
4.88585e-26
1.06089e-24
6.77816e-18
1.658e-24
-2.21252e-24
6.77816e-18
8.52277e-25
7.51378e-25
6.77817e-18
-1.41138e-24
-1.299e-24
6.77818e-18
-1.63573e-24
5.30189e-24
6.77818e-18
-1.81444e-24
2.41232e-24
6.77817e-18
-4.60143e-25
6.72851e-24
6.77817e-18
9.7628e-25
-1.67532e-24
6.77817e-18
-1.4726e-24
2.04072e-24
6.77819e-18
-1.10849e-24
-3.63621e-24
6.77819e-18
-3.2765e-24
5.92038e-24
6.77818e-18
-4.13158e-24
1.17266e-24
6.77816e-18
-5.93434e-24
4.97099e-24
6.77816e-18
-7.10235e-24
-4.16065e-24
6.77816e-18
-3.89967e-24
-1.434e-25
6.77815e-18
-3.15787e-25
-5.01855e-24
6.77814e-18
2.37403e-25
-6.47042e-25
6.77814e-18
-9.55433e-25
-4.62635e-24
6.77814e-18
-1.17623e-24
4.32983e-24
6.77813e-18
-1.56318e-24
-2.79835e-24
6.77812e-18
9.77216e-25
3.71901e-24
6.77811e-18
2.57004e-24
-6.45756e-24
6.7781e-18
1.31042e-24
1.61945e-24
6.77811e-18
-2.07776e-24
-6.42632e-24
6.77811e-18
-2.26824e-24
8.20208e-24
6.77811e-18
-4.12876e-24
-1.41689e-24
6.7781e-18
-3.73087e-24
7.79915e-24
6.77811e-18
-3.66181e-24
-5.32136e-24
6.7781e-18
-4.03022e-24
2.2918e-24
6.77811e-18
-3.24804e-24
-6.03459e-24
6.77811e-18
-3.0873e-24
1.47005e-24
6.77812e-18
-1.64776e-24
-4.59423e-24
6.77812e-18
-1.79009e-24
1.72841e-24
6.77812e-18
-5.67606e-25
-4.28024e-24
6.77812e-18
-1.07839e-24
1.6667e-24
6.77813e-18
2.10542e-25
-4.23797e-24
6.77814e-18
1.94851e-25
1.14375e-24
6.77814e-18
2.35411e-24
-4.64549e-24
6.77814e-18
4.15802e-24
9.16338e-25
6.77814e-18
6.19657e-24
-4.81884e-24
6.77814e-18
4.70524e-24
2.50233e-24
6.77816e-18
2.1071e-24
-4.30016e-24
6.77817e-18
2.62735e-24
8.04945e-24
6.77818e-18
2.03268e-24
-1.13634e-25
6.77818e-18
4.38875e-24
7.21971e-24
6.77818e-18
4.41649e-24
-4.14928e-24
6.77818e-18
2.31524e-24
3.16812e-24
6.7782e-18
-1.24194e-24
-4.44131e-24
6.77821e-18
-3.00981e-25
6.97901e-24
6.77822e-18
-1.82785e-25
2.24424e-25
6.77821e-18
2.81194e-24
5.59933e-24
6.7782e-18
2.79833e-24
-4.53126e-24
6.7782e-18
8.99435e-25
1.4507e-24
6.77821e-18
-2.63603e-24
-5.37264e-24
6.77821e-18
-2.00196e-24
5.61109e-24
6.77821e-18
-2.60231e-24
-1.04211e-24
6.7782e-18
-9.894e-25
4.46975e-24
6.77819e-18
-1.04896e-24
-5.63191e-24
6.77818e-18
-1.03258e-24
-6.41187e-25
6.77818e-18
-1.40893e-24
-7.32685e-24
6.77818e-18
-1.15403e-24
-1.99207e-25
6.77818e-18
-2.03408e-24
-6.18887e-24
6.77818e-18
-3.27962e-24
-4.01992e-25
6.77818e-18
2.23047e-24
-6.04009e-25
6.77819e-18
-8.86188e-24
-5.21678e-24
6.77819e-18
1.52005e-24
5.86469e-25
1.42224e-23
1.66338e-23
1.56973e-17
8.88596e-21
4.39498e-20
1.56706e-17
6.48134e-22
-1.19942e-20
1.56745e-17
6.1248e-22
1.30127e-21
1.56769e-17
-1.14982e-23
-7.58081e-23
1.56753e-17
-5.24751e-22
-2.41076e-21
1.56753e-17
-4.1501e-24
-1.48186e-22
1.56755e-17
1.623e-23
1.20907e-22
1.56754e-17
-3.24247e-23
-1.0416e-22
1.56754e-17
-1.02756e-23
-8.67155e-24
1.56754e-17
5.05279e-24
5.58574e-23
1.56755e-17
4.38983e-24
5.5191e-23
1.56755e-17
8.72295e-24
4.67535e-23
1.56755e-17
1.24109e-23
4.18886e-23
1.56756e-17
1.53806e-23
3.49757e-23
1.56756e-17
1.53015e-23
2.73292e-23
1.56756e-17
1.61049e-23
2.22952e-23
1.56756e-17
1.57281e-23
1.87931e-23
1.56756e-17
1.6789e-23
1.89888e-23
1.56756e-17
1.74502e-23
2.03702e-23
1.56757e-17
1.82936e-23
2.30753e-23
1.56757e-17
1.74789e-23
2.24694e-23
1.56758e-17
1.61899e-23
2.18326e-23
1.56758e-17
1.35702e-23
1.9305e-23
1.56759e-17
1.05951e-23
1.86856e-23
1.56759e-17
6.91951e-24
1.58204e-23
1.56759e-17
4.08621e-24
1.36011e-23
1.56759e-17
2.44164e-24
1.00739e-23
1.5676e-17
3.11805e-24
1.03722e-23
1.5676e-17
1.98641e-24
9.64433e-24
1.5676e-17
8.1627e-25
1.00473e-23
1.5676e-17
-1.19566e-24
6.90349e-24
1.5676e-17
-1.89793e-24
3.70959e-24
1.5676e-17
-6.2869e-25
3.586e-25
1.5676e-17
2.44371e-25
-6.85742e-26
1.5676e-17
2.86912e-25
-1.40391e-24
1.5676e-17
3.32905e-25
6.34445e-25
1.5676e-17
6.34898e-25
3.40964e-24
1.5676e-17
7.55394e-25
7.25509e-24
1.5676e-17
2.71925e-26
7.04264e-24
1.5676e-17
-8.44796e-25
5.9045e-24
1.5676e-17
-1.43414e-24
2.28982e-24
1.5676e-17
-4.47114e-25
2.36185e-24
1.56761e-17
-2.20161e-24
1.27405e-24
1.56761e-17
-4.32338e-24
2.20578e-24
1.5676e-17
-7.51703e-24
-1.4415e-24
1.5676e-17
-8.29258e-24
-3.35369e-24
1.5676e-17
-7.03833e-24
-7.19633e-24
1.5676e-17
-4.73073e-24
-6.14026e-24
1.5676e-17
-3.98275e-24
-8.27176e-24
1.5676e-17
-2.55144e-24
-5.67161e-24
1.5676e-17
-2.05999e-24
-3.97645e-24
1.5676e-17
-9.99271e-25
6.59562e-25
1.56759e-17
-8.3533e-25
-1.13461e-24
1.56759e-17
-3.78537e-25
-1.01912e-24
1.56759e-17
-1.15117e-24
-5.40333e-24
1.56759e-17
-8.27364e-25
-2.87631e-24
1.56759e-17
-1.40152e-24
-1.19048e-24
1.56759e-17
-1.53356e-24
4.91612e-24
1.56759e-17
-3.34502e-24
2.77841e-24
1.56759e-17
-4.60068e-24
2.73378e-24
1.56759e-17
-6.37947e-24
-3.79438e-24
1.56759e-17
-6.05371e-24
-2.85638e-24
1.56759e-17
-6.31519e-24
-5.75147e-24
1.56759e-17
-4.78297e-24
-2.2995e-24
1.56759e-17
-4.77234e-24
-4.26518e-24
1.56759e-17
-3.28001e-24
-1.18085e-24
1.56759e-17
-3.2827e-24
-3.02044e-24
1.56759e-17
-1.62262e-24
3.07005e-26
1.5676e-17
-1.17431e-24
-1.84952e-24
1.5676e-17
8.66907e-25
8.75746e-25
1.5676e-17
1.78621e-24
-1.26672e-24
1.5676e-17
3.57526e-24
1.05628e-24
1.5676e-17
4.1921e-24
5.40965e-25
1.5676e-17
5.85108e-24
4.54564e-24
1.5676e-17
7.07537e-24
7.84554e-24
1.5676e-17
7.97654e-24
1.23903e-23
1.5676e-17
7.29017e-24
1.02157e-23
1.56761e-17
5.78027e-24
7.83003e-24
1.56761e-17
3.86989e-24
2.7507e-24
1.56761e-17
3.27606e-24
3.79111e-24
1.56761e-17
3.39399e-24
5.28561e-24
1.56761e-17
3.65372e-24
9.08535e-24
1.56761e-17
3.19655e-24
6.46627e-24
1.56761e-17
1.6041e-24
3.22975e-24
1.56761e-17
-3.60119e-26
-2.15333e-24
1.56761e-17
-8.31411e-25
-1.98184e-24
1.56761e-17
-8.60787e-25
-5.54706e-25
1.56761e-17
-1.08588e-24
3.27312e-24
1.56761e-17
-1.89326e-24
1.06241e-24
1.56761e-17
-3.36768e-24
-1.62288e-24
1.56761e-17
-4.94535e-24
-7.52447e-24
1.56761e-17
-5.35342e-24
-8.30746e-24
1.56761e-17
-5.7679e-24
-9.97612e-24
1.56761e-17
-4.97006e-24
-6.561e-24
1.56761e-17
-5.17311e-24
-7.57074e-24
1.56761e-17
-4.35447e-24
-4.4584e-24
1.56761e-17
-3.20985e-24
-9.22195e-25
1.56761e-17
-2.65717e-24
-5.77576e-24
1.56761e-17
-1.76423e-24
-1.08075e-24
1.82057e-24
1.04953e-23
1.8408e-17
-6.71428e-21
4.26339e-20
1.83892e-17
-5.69492e-22
-1.22048e-20
1.8393e-17
-4.35792e-22
4.15999e-21
1.83959e-17
-2.77763e-23
-1.5023e-22
1.83943e-17
3.35326e-22
-2.87714e-21
1.83943e-17
-5.73953e-23
-1.27626e-22
1.83944e-17
-4.2144e-23
1.51116e-22
1.83944e-17
2.98201e-24
-1.4719e-22
1.83943e-17
-8.513e-24
-1.45601e-23
1.83944e-17
-1.69571e-23
5.05656e-23
1.83944e-17
-3.69062e-24
6.29151e-23
1.83945e-17
2.81565e-24
4.84398e-23
1.83945e-17
8.43096e-24
4.8733e-23
1.83946e-17
8.61071e-24
3.67881e-23
1.83946e-17
1.02189e-23
3.25408e-23
1.83946e-17
9.33215e-24
2.36021e-23
1.83946e-17
9.55087e-24
2.22517e-23
1.83946e-17
9.1787e-24
2.09057e-23
1.83946e-17
1.07872e-23
2.32215e-23
1.83947e-17
1.16549e-23
2.60714e-23
1.83947e-17
1.09027e-23
2.50829e-23
1.83948e-17
1.01621e-23
2.5146e-23
1.83948e-17
8.7435e-24
2.1645e-23
1.83949e-17
7.11337e-24
2.17167e-23
1.83949e-17
4.29954e-24
1.80877e-23
1.83949e-17
1.82635e-24
1.61797e-23
1.8395e-17
-3.48945e-25
1.20929e-23
1.8395e-17
-3.96396e-25
1.21266e-23
1.8395e-17
-3.07969e-26
1.10834e-23
1.83951e-17
9.8892e-27
1.13295e-23
1.83951e-17
-5.71488e-25
7.65664e-24
1.83951e-17
1.82709e-25
4.43197e-24
1.83951e-17
7.86227e-25
1.06929e-24
1.83951e-17
1.196e-24
3.86502e-25
1.83951e-17
-3.05944e-25
-6.86938e-25
1.83951e-17
-7.40992e-25
9.70954e-25
1.83951e-17
1.27803e-25
4.1913e-24
1.83951e-17
1.12405e-24
7.98242e-24
1.83951e-17
3.69499e-25
7.95334e-24
1.83951e-17
-7.68181e-25
6.60657e-24
1.83951e-17
-2.4446e-24
2.70228e-24
1.83951e-17
-2.60586e-24
2.69107e-24
1.83951e-17
-2.58626e-24
1.2426e-24
1.83951e-17
-2.6041e-24
1.83189e-24
1.83951e-17
-3.47784e-24
-1.96439e-24
1.83951e-17
-2.68402e-24
-3.98682e-24
1.83951e-17
-1.53545e-24
-7.32466e-24
1.83951e-17
-6.41414e-25
-7.19642e-24
1.83951e-17
-1.60453e-24
-7.93206e-24
1.8395e-17
-2.2515e-24
-7.07183e-24
1.8395e-17
-1.28796e-24
-3.93713e-24
1.8395e-17
2.45614e-25
-3.4577e-25
1.8395e-17
6.46545e-25
-1.11145e-24
1.8395e-17
6.58268e-25
-1.61584e-24
1.8395e-17
-1.16702e-24
-5.07491e-24
1.83949e-17
-1.7895e-24
-2.94613e-24
1.83949e-17
-1.22052e-24
-7.63522e-25
1.83949e-17
1.6135e-25
5.13227e-24
1.83949e-17
-8.95984e-25
3.16739e-24
1.83949e-17
-1.20188e-24
3.20038e-24
1.83949e-17
-3.35871e-24
-2.74236e-24
1.83949e-17
-4.01841e-24
-2.52062e-24
1.83949e-17
-4.59869e-24
-4.04726e-24
1.8395e-17
-4.47212e-24
-2.49591e-24
1.8395e-17
-4.37007e-24
-2.5816e-24
1.8395e-17
-4.06644e-24
-1.41216e-24
1.8395e-17
-3.67261e-24
-1.46475e-24
1.8395e-17
-3.02716e-24
-1.38871e-25
1.8395e-17
-2.01161e-24
-2.687e-25
1.8395e-17
-1.28773e-24
8.988e-25
1.8395e-17
-2.93889e-25
6.90393e-25
1.8395e-17
-1.21042e-25
1.66676e-24
1.8395e-17
-2.75505e-25
2.07451e-24
1.8395e-17
7.94072e-25
5.97095e-24
1.83951e-17
3.46793e-24
9.01017e-24
1.83951e-17
5.98795e-24
1.43208e-23
1.83951e-17
5.61337e-24
1.11555e-23
1.83951e-17
4.72917e-24
9.93153e-24
1.83951e-17
1.5826e-24
3.70119e-24
1.83951e-17
1.14214e-24
5.94716e-24
1.83952e-17
2.32273e-24
6.53645e-24
1.83952e-17
3.96354e-24
1.10634e-23
1.83952e-17
3.21118e-24
7.79401e-24
1.83952e-17
2.01342e-24
4.08177e-24
1.83952e-17
-1.1465e-24
-2.10558e-24
1.83952e-17
-1.54117e-24
-1.04927e-24
1.83952e-17
-5.80931e-25
-1.99706e-25
1.83952e-17
1.09227e-24
4.14216e-24
1.83952e-17
1.59133e-25
8.70312e-25
1.83952e-17
-5.18705e-25
-1.409e-24
1.83952e-17
-2.8828e-24
-7.88189e-24
1.83951e-17
-3.74796e-24
-8.66098e-24
1.83951e-17
-4.57281e-24
-1.00627e-23
1.83951e-17
-4.33233e-24
-7.07141e-24
1.83951e-17
-4.22205e-24
-7.49305e-24
1.83951e-17
-3.71217e-24
-5.28251e-24
1.83951e-17
-3.75275e-24
1.5621e-24
1.83951e-17
-3.30942e-24
-4.63118e-24
1.83951e-17
-2.42348e-24
-1.72012e-24
-2.85101e-24
8.92629e-24
1.56973e-17
-4.79459e-20
4.37157e-20
1.56703e-17
1.72564e-20
-1.22627e-20
1.56747e-17
-2.62974e-21
1.40268e-21
1.5677e-17
-7.51378e-22
-5.77483e-23
1.56753e-17
1.75432e-21
-2.4883e-21
1.56753e-17
-1.79328e-22
-8.51975e-23
1.56755e-17
-1.86989e-22
1.02993e-22
1.56754e-17
8.9736e-23
-1.15385e-22
1.56754e-17
2.39355e-23
-3.92857e-23
1.56754e-17
-1.62865e-23
5.0288e-23
1.56755e-17
-5.1668e-24
3.81271e-23
1.56755e-17
7.90829e-24
3.89549e-23
1.56756e-17
5.19352e-24
2.94742e-23
1.56756e-17
5.63621e-24
2.98435e-23
1.56756e-17
3.1398e-24
2.1332e-23
1.56756e-17
3.56642e-24
1.82694e-23
1.56756e-17
1.44161e-24
1.57715e-23
1.56756e-17
3.9575e-24
1.40056e-23
1.56756e-17
5.24191e-24
1.76759e-23
1.56757e-17
6.48653e-24
1.61671e-23
1.56757e-17
5.98475e-24
1.98727e-23
1.56758e-17
6.39022e-24
1.50031e-23
1.56758e-17
6.68483e-24
1.67718e-23
1.56759e-17
5.23499e-24
1.28831e-23
1.56759e-17
3.31157e-24
1.45719e-23
1.56759e-17
1.99666e-25
9.34672e-24
1.56759e-17
-1.23757e-25
1.00781e-23
1.5676e-17
6.64417e-25
6.10534e-24
1.5676e-17
2.59055e-24
8.29082e-24
1.5676e-17
1.04332e-24
5.90146e-24
1.5676e-17
4.10312e-25
6.91382e-24
1.5676e-17
5.47495e-25
2.68075e-24
1.5676e-17
1.87462e-24
2.42641e-24
1.5676e-17
2.29672e-25
-4.97162e-25
1.5676e-17
-1.34476e-24
7.02246e-25
1.5676e-17
-5.30952e-25
-2.87117e-25
1.5676e-17
1.47116e-24
4.12022e-24
1.5676e-17
2.16023e-24
4.08149e-24
1.5676e-17
1.00384e-24
7.68863e-24
1.5676e-17
-1.67437e-24
2.62694e-24
1.5676e-17
-2.57105e-24
4.57335e-24
1.5676e-17
-1.16577e-24
-1.37763e-24
1.56761e-17
2.67927e-25
2.81266e-24
1.56761e-17
-2.95852e-25
-1.69307e-24
1.5676e-17
-1.48814e-24
2.13954e-24
1.5676e-17
3.54584e-25
-3.81026e-24
1.5676e-17
1.65965e-24
-2.18811e-24
1.5676e-17
9.38188e-25
-6.28395e-24
1.5676e-17
-2.7642e-24
-3.74603e-24
1.5676e-17
-1.55429e-24
-6.71213e-24
1.5676e-17
-1.29013e-24
1.17535e-26
1.5676e-17
1.55122e-24
-2.64472e-24
1.56759e-17
6.93206e-25
3.37456e-24
1.56759e-17
-1.91838e-25
-3.91728e-24
1.56759e-17
-3.8204e-24
1.06051e-24
1.56759e-17
-8.36233e-25
-5.83812e-24
1.56759e-17
-2.58497e-26
4.0147e-24
1.56759e-17
2.44911e-24
-9.33664e-25
1.56759e-17
8.08614e-25
8.03101e-24
1.56759e-17
1.71643e-24
-1.63997e-24
1.56759e-17
-9.8008e-25
2.82568e-24
1.56759e-17
3.37109e-25
-5.39277e-24
1.56759e-17
-2.15517e-24
1.11239e-25
1.56759e-17
-7.75735e-25
-4.89374e-24
1.56759e-17
-3.16012e-24
6.69846e-25
1.56759e-17
-1.31508e-24
-3.62462e-24
1.56759e-17
-3.09002e-24
1.41427e-24
1.56759e-17
-6.86402e-25
-2.56812e-24
1.5676e-17
-1.85574e-24
1.94655e-24
1.5676e-17
2.55081e-25
-1.796e-24
1.5676e-17
-1.64077e-24
2.3886e-24
1.5676e-17
-1.80552e-24
-1.74251e-24
1.5676e-17
-4.34764e-24
4.19851e-24
1.5676e-17
-1.80816e-25
6.60095e-25
1.5676e-17
2.52529e-24
9.35842e-24
1.5676e-17
4.9787e-24
5.94139e-24
1.5676e-17
3.72414e-24
1.22044e-23
1.5676e-17
1.38765e-24
3.59983e-24
1.56761e-17
-1.07648e-24
7.17505e-24
1.56761e-17
1.43836e-24
8.88567e-25
1.56761e-17
4.03177e-24
7.54987e-24
1.56761e-17
4.51901e-24
4.25454e-24
1.56761e-17
2.76387e-24
8.66431e-24
1.56761e-17
-6.69565e-25
5.24469e-25
1.56761e-17
-2.91888e-24
2.7965e-24
1.56761e-17
-7.51008e-25
-3.38953e-24
1.56761e-17
1.8263e-24
2.823e-24
1.56761e-17
2.60262e-24
-5.60153e-25
1.56761e-17
1.2323e-24
4.45344e-24
1.56761e-17
-2.74413e-25
-3.22369e-24
1.56761e-17
-2.04529e-24
-1.63715e-24
1.56761e-17
-2.07087e-24
-8.33113e-24
1.56761e-17
-2.90538e-24
-4.14173e-24
1.56761e-17
-2.31291e-24
-7.28594e-24
1.5676e-17
-2.02652e-24
-3.08561e-24
1.56761e-17
4.28028e-26
-6.0728e-24
1.56761e-17
-5.14635e-24
2.67526e-24
1.56761e-17
6.20398e-24
-7.47481e-24
1.56761e-17
-2.91794e-24
6.69139e-25
-1.50583e-23
1.06937e-23
6.74736e-18
4.87308e-20
6.78172e-18
-1.69019e-20
6.7761e-18
3.24515e-21
6.77485e-18
5.71705e-22
6.77844e-18
-1.82239e-21
6.77804e-18
1.59408e-22
6.7776e-18
2.47791e-22
6.77784e-18
-1.49647e-22
6.77791e-18
-1.59719e-23
6.77791e-18
-1.84287e-24
6.77791e-18
2.51216e-23
6.77794e-18
-4.43742e-24
6.77796e-18
1.42521e-23
6.77797e-18
2.5285e-24
6.77797e-18
9.82704e-24
6.77797e-18
4.5915e-24
6.77798e-18
3.47562e-24
6.77798e-18
5.32145e-24
6.778e-18
-1.22793e-24
6.77801e-18
8.53431e-24
6.77803e-18
-2.04964e-24
6.77805e-18
7.51763e-24
6.77807e-18
-3.84672e-24
6.77809e-18
7.26318e-24
6.7781e-18
-1.08042e-24
6.77811e-18
6.74207e-24
6.77812e-18
-4.24189e-24
6.77813e-18
2.18182e-24
6.77815e-18
-5.09884e-24
6.77816e-18
4.38109e-24
6.77817e-18
-3.52865e-25
6.77816e-18
5.21696e-24
6.77817e-18
-2.04065e-24
6.77816e-18
3.68761e-24
6.77816e-18
-3.16193e-24
6.77816e-18
1.85302e-24
6.77817e-18
-4.02831e-24
6.77818e-18
5.30233e-24
6.77818e-18
-1.63874e-24
6.77817e-18
7.24817e-24
6.77817e-18
-6.20502e-24
6.77817e-18
3.67759e-24
6.77819e-18
-8.25413e-24
6.77818e-18
7.4511e-24
6.77818e-18
-3.14366e-24
6.77816e-18
8.26018e-24
6.77816e-18
-5.52123e-24
6.77816e-18
5.39272e-24
6.77815e-18
-5.79581e-24
6.77814e-18
4.21443e-24
6.77814e-18
-6.8566e-24
6.77814e-18
8.8405e-24
6.77813e-18
-5.63121e-24
6.77812e-18
1.10324e-23
6.77811e-18
-8.94159e-24
6.7781e-18
7.87651e-24
6.77811e-18
-1.11485e-23
6.77811e-18
1.2888e-23
6.77811e-18
-7.83254e-24
6.7781e-18
1.35172e-23
6.77811e-18
-1.0755e-23
6.7781e-18
8.04526e-24
6.77811e-18
-1.0972e-23
6.77811e-18
6.02761e-24
6.77812e-18
-9.5905e-24
6.77812e-18
5.82166e-24
6.77813e-18
-9.01607e-24
6.77813e-18
5.47061e-24
6.77814e-18
-8.79033e-24
6.77814e-18
4.93746e-24
6.77815e-18
-7.77811e-24
6.77814e-18
6.08338e-24
6.77814e-18
-7.96394e-24
6.77815e-18
5.95276e-24
6.77816e-18
-9.08531e-24
6.77817e-18
1.07047e-23
6.77818e-18
-4.65158e-24
6.77817e-18
1.22123e-23
6.77818e-18
-7.60152e-24
6.77818e-18
6.4326e-24
6.7782e-18
-8.94581e-24
6.77821e-18
8.78567e-24
6.77822e-18
-3.32889e-24
6.77821e-18
1.0113e-23
6.7782e-18
-6.54505e-24
6.7782e-18
5.30546e-24
6.77821e-18
-8.32165e-24
6.77821e-18
8.49532e-24
6.77821e-18
-4.19771e-24
6.7782e-18
9.72997e-24
6.77819e-18
-6.92769e-24
6.77818e-18
5.73295e-24
6.77818e-18
-8.52465e-24
6.77817e-18
5.03853e-24
6.77818e-18
-8.65888e-24
6.77818e-18
2.69276e-24
6.77818e-18
-3.26642e-24
6.77819e-18
-2.62365e-24
6.77819e-18
-1.97727e-24
1.73757e-23
5.43051e-18
6.97199e-20
3.7101e-21
5.45484e-18
-2.2034e-20
-2.12112e-21
5.45116e-18
2.41762e-21
1.51113e-21
5.44996e-18
1.15726e-21
4.52137e-23
5.45265e-18
-2.63709e-21
-7.79211e-23
5.45259e-18
-1.38296e-22
6.14202e-23
5.45234e-18
2.19318e-22
5.00371e-23
5.45248e-18
-1.41276e-22
9.85802e-25
5.45254e-18
-4.52307e-23
3.08423e-23
5.45253e-18
-3.22853e-24
8.49006e-24
5.45254e-18
4.11532e-24
1.84888e-23
5.45256e-18
-1.48357e-23
7.21865e-24
5.45258e-18
-1.11856e-24
1.28814e-23
5.45258e-18
-2.98424e-24
4.37343e-24
5.45259e-18
5.21916e-24
6.7427e-24
5.45259e-18
3.56599e-24
2.42618e-24
5.45259e-18
6.51247e-24
3.26662e-24
5.4526e-18
5.0573e-24
3.56576e-24
5.45261e-18
1.21208e-24
3.13269e-24
5.45262e-18
3.96283e-24
6.86609e-24
5.45263e-18
-1.02504e-25
3.12445e-24
5.45265e-18
2.60925e-24
7.23356e-24
5.45267e-18
-3.54431e-24
2.63214e-24
5.45269e-18
9.29883e-25
7.0099e-24
5.45269e-18
-1.60048e-24
1.21044e-24
5.4527e-18
2.70385e-24
4.41792e-24
5.4527e-18
-2.19556e-24
-6.418e-25
5.45272e-18
-1.72201e-24
4.76108e-24
5.45273e-18
-5.7175e-24
1.23177e-24
5.45274e-18
-7.50933e-25
5.16057e-24
5.45274e-18
-1.42039e-24
-9.41173e-25
5.45274e-18
6.33461e-25
1.77059e-24
5.45274e-18
-3.3983e-24
-2.41611e-24
5.45274e-18
6.31476e-25
1.65961e-24
5.45274e-18
1.26246e-25
-2.26067e-24
5.45274e-18
1.29524e-24
1.7875e-24
5.45275e-18
-3.31135e-24
-7.48733e-25
5.45275e-18
-4.37044e-25
4.04723e-24
5.45275e-18
-2.03107e-24
-6.89343e-25
5.45275e-18
3.29899e-24
2.54491e-24
5.45275e-18
-1.56609e-24
-2.3205e-24
5.45275e-18
-7.30535e-26
3.35179e-24
5.45276e-18
-5.76934e-24
-6.04349e-25
5.45276e-18
1.12692e-24
3.35489e-24
5.45275e-18
-1.92474e-24
-3.15415e-24
5.45274e-18
4.64764e-25
-1.10256e-25
5.45274e-18
-6.4583e-24
-3.85718e-24
5.45274e-18
-1.25327e-24
-3.82458e-26
5.45273e-18
-7.9953e-25
-3.10276e-24
5.45273e-18
2.43132e-24
-2.27723e-25
5.45273e-18
-2.01872e-24
-1.95816e-24
5.45272e-18
2.70525e-24
2.05158e-24
5.45272e-18
-1.9917e-24
-2.15299e-24
5.45271e-18
4.73894e-24
9.14773e-25
5.4527e-18
2.83444e-25
-3.50441e-24
5.4527e-18
4.3754e-24
8.34688e-25
5.4527e-18
-5.25379e-24
-1.76832e-24
5.4527e-18
2.68505e-24
3.71222e-24
5.4527e-18
-4.97257e-24
-2.05004e-24
5.45269e-18
2.07031e-24
2.09276e-24
5.4527e-18
-6.20052e-24
-3.04316e-24
5.4527e-18
-5.23176e-25
1.07913e-24
5.4527e-18
-5.82121e-24
-1.84536e-24
5.4527e-18
-6.63775e-25
1.13168e-24
5.45271e-18
-3.85507e-24
-1.32136e-24
5.45271e-18
4.33382e-25
9.49763e-25
5.45271e-18
-2.99549e-24