/*--------------------------------*- C++ -*----------------------------------*\
| =========                 |                                                 |
| \\      /  F ield         | OpenFOAM: The Open Source CFD Toolbox           |
|  \\    /   O peration     | Version:  2412                                  |
|   \\  /    A nd           | Website:  www.openfoam.com                      |
|    \\/     M anipulation  |                                                 |
\*---------------------------------------------------------------------------*/
FoamFile
{
    version     2.0;
    format      ascii;
    arch        "LSB;label=32;scalar=64";
    class       volVectorField;
    location    "50";
    object      U;
}
// * * * * * * * * * * * * * * * * * * * * * * * * * * * * * * * * * * * * * //

dimensions      [0 1 -1 0 0 0 0];

internalField   nonuniform List<vector> 
40500
(
(1.41072e-05 4.98786e-09 8.0114e-08)
(1.40506e-05 -4.96439e-09 -2.96284e-08)
(1.40796e-05 1.24656e-09 4.89691e-09)
(1.40695e-05 -4.19009e-11 8.55543e-10)
(1.4075e-05 4.29999e-10 -2.49072e-09)
(1.40793e-05 2.6121e-10 4.98884e-11)
(1.40796e-05 1.06055e-10 9.11155e-11)
(1.40806e-05 1.0701e-10 -2.43434e-10)
(1.40815e-05 9.28608e-11 -1.25039e-10)
(1.4082e-05 7.59358e-11 -5.52499e-11)
(1.40822e-05 7.9937e-11 -5.05028e-11)
(1.40825e-05 8.39975e-11 -5.37729e-11)
(1.40826e-05 8.52932e-11 -3.8054e-11)
(1.40827e-05 8.18671e-11 -3.34652e-11)
(1.40827e-05 7.84633e-11 -2.63897e-11)
(1.40827e-05 7.21964e-11 -2.63473e-11)
(1.40827e-05 6.57796e-11 -2.08468e-11)
(1.40827e-05 5.77586e-11 -1.86126e-11)
(1.40827e-05 4.91817e-11 -1.22079e-11)
(1.40827e-05 3.9909e-11 -8.48496e-12)
(1.40826e-05 3.1489e-11 -3.83863e-12)
(1.40826e-05 2.32748e-11 -2.36216e-12)
(1.40826e-05 1.61914e-11 -4.30915e-13)
(1.40826e-05 9.96376e-12 2.37995e-13)
(1.40826e-05 5.45569e-12 -5.08541e-13)
(1.40826e-05 3.10441e-12 7.31085e-13)
(1.40826e-05 9.10227e-13 -2.45192e-13)
(1.40826e-05 -4.88254e-13 3.39305e-12)
(1.40826e-05 -2.9492e-12 3.15835e-12)
(1.40826e-05 -4.00379e-12 5.15214e-12)
(1.40826e-05 -5.27505e-12 3.47628e-12)
(1.40826e-05 -5.24264e-12 4.90496e-12)
(1.40826e-05 -5.79575e-12 3.17649e-12)
(1.40826e-05 -5.67503e-12 4.54526e-12)
(1.40826e-05 -6.1986e-12 3.26918e-12)
(1.40826e-05 -5.79128e-12 4.21221e-12)
(1.40826e-05 -5.34399e-12 1.82723e-12)
(1.40826e-05 -4.02487e-12 3.08069e-12)
(1.40826e-05 -3.88981e-12 1.51927e-12)
(1.40826e-05 -3.6932e-12 2.87058e-12)
(1.40826e-05 -4.51663e-12 2.82766e-12)
(1.40826e-05 -4.69579e-12 3.52204e-12)
(1.40826e-05 -3.96378e-12 1.06834e-12)
(1.40826e-05 -1.6877e-12 -1.39755e-13)
(1.40826e-05 -2.31651e-13 -2.16587e-12)
(1.40826e-05 1.08151e-12 4.30608e-13)
(1.40826e-05 2.99627e-13 -6.41317e-13)
(1.40826e-05 -5.35727e-14 1.2481e-12)
(1.40826e-05 -1.21087e-12 2.97899e-14)
(1.40826e-05 -1.20459e-12 1.44312e-12)
(1.40826e-05 -1.31219e-12 -8.74329e-13)
(1.40826e-05 -4.25472e-13 8.39581e-13)
(1.40826e-05 -8.87382e-13 -6.17292e-13)
(1.40826e-05 -1.05079e-12 1.16822e-12)
(1.40826e-05 -2.37469e-12 1.33539e-12)
(1.40826e-05 -2.91508e-12 2.38842e-12)
(1.40826e-05 -2.63304e-12 1.83714e-13)
(1.40826e-05 -1.06452e-12 -7.31471e-13)
(1.40826e-05 -3.44851e-13 -2.54657e-12)
(1.40826e-05 7.36972e-14 2.07475e-13)
(1.40826e-05 -1.61937e-12 1.07822e-12)
(1.40826e-05 -2.63016e-12 2.50859e-12)
(1.40826e-05 -2.84303e-12 7.69026e-13)
(1.40826e-05 -1.75293e-12 -5.89871e-14)
(1.40826e-05 -1.00614e-12 -1.31253e-12)
(1.40826e-05 -3.38917e-13 -5.48e-14)
(1.40826e-05 -3.4177e-13 1.45995e-13)
(1.40826e-05 1.2947e-13 5.15631e-13)
(1.40826e-05 1.05949e-12 4.95365e-13)
(1.40826e-05 2.29739e-12 -5.66057e-13)
(1.40826e-05 3.73265e-12 -5.84648e-13)
(1.40826e-05 4.69908e-12 -1.04468e-12)
(1.40826e-05 5.56099e-12 -7.3654e-13)
(1.40826e-05 5.81051e-12 -1.07161e-12)
(1.40826e-05 5.89494e-12 -6.74866e-13)
(1.40826e-05 5.34679e-12 -8.08278e-13)
(1.40826e-05 4.69057e-12 -5.79479e-13)
(1.40826e-05 3.78695e-12 -6.1356e-13)
(1.40826e-05 3.11086e-12 -6.93845e-13)
(1.40826e-05 2.86417e-12 -6.3818e-13)
(1.40826e-05 3.28907e-12 -2.58028e-12)
(1.40826e-05 4.51534e-12 -2.59095e-12)
(1.40826e-05 4.79151e-12 -4.80091e-12)
(1.40826e-05 4.55863e-12 -1.79202e-12)
(1.40826e-05 2.18548e-12 -9.00775e-13)
(1.40826e-05 2.12745e-13 1.1363e-13)
(1.40826e-05 -1.18787e-12 -2.52766e-12)
(1.40826e-05 -2.12206e-12 -3.73004e-12)
(1.40826e-05 -5.21378e-12 -4.91861e-12)
(1.40826e-05 -1.11928e-11 4.97767e-13)
(1.40825e-05 -2.27097e-11 6.29812e-12)
(1.40824e-05 -3.93303e-11 1.62916e-11)
(1.40821e-05 -6.3846e-11 2.88324e-11)
(1.40817e-05 -9.96272e-11 5.12977e-11)
(1.4081e-05 -1.55506e-10 8.96606e-11)
(1.40799e-05 -2.37165e-10 1.73401e-10)
(1.40782e-05 -3.47833e-10 2.96486e-10)
(1.40758e-05 -5.52779e-10 3.39803e-10)
(1.40712e-05 -7.62478e-10 9.87504e-10)
(1.40649e-05 -4.97015e-10 2.04253e-09)
(1.97089e-05 -1.58943e-10 9.47895e-08)
(1.96401e-05 -1.57478e-10 -3.80881e-08)
(1.96798e-05 -9.2701e-11 6.11433e-09)
(1.96656e-05 -3.89005e-11 1.16442e-09)
(1.96723e-05 -6.57096e-11 -2.74822e-09)
(1.96781e-05 -6.02731e-11 1.4472e-10)
(1.96786e-05 -3.87317e-11 1.15901e-10)
(1.96799e-05 -2.33738e-11 -2.46199e-10)
(1.96812e-05 7.25952e-12 -1.0991e-10)
(1.96818e-05 3.48418e-11 -2.08785e-11)
(1.96822e-05 6.27511e-11 -1.74074e-11)
(1.96825e-05 8.2558e-11 -1.48769e-11)
(1.96827e-05 9.2003e-11 -2.57627e-12)
(1.96828e-05 9.22343e-11 4.65371e-12)
(1.96829e-05 8.88545e-11 5.86408e-12)
(1.96829e-05 8.27701e-11 7.16064e-12)
(1.96829e-05 7.42868e-11 6.46346e-12)
(1.96829e-05 6.5394e-11 7.25308e-12)
(1.96828e-05 5.5598e-11 6.9019e-12)
(1.96828e-05 4.58191e-11 8.04854e-12)
(1.96828e-05 3.63055e-11 6.89296e-12)
(1.96828e-05 2.72244e-11 6.51072e-12)
(1.96827e-05 1.92871e-11 5.25224e-12)
(1.96827e-05 1.30658e-11 4.59055e-12)
(1.96827e-05 9.19097e-12 4.03607e-12)
(1.96827e-05 7.57287e-12 3.99441e-12)
(1.96827e-05 6.18493e-12 4.68433e-12)
(1.96827e-05 4.41369e-12 5.50818e-12)
(1.96827e-05 1.7937e-12 5.62046e-12)
(1.96827e-05 -1.02069e-13 5.0243e-12)
(1.96827e-05 -1.61419e-12 4.14113e-12)
(1.96827e-05 -2.26845e-12 3.79271e-12)
(1.96827e-05 -3.06104e-12 3.25889e-12)
(1.96827e-05 -3.53309e-12 3.06457e-12)
(1.96827e-05 -4.29843e-12 2.84283e-12)
(1.96827e-05 -4.05456e-12 2.50546e-12)
(1.96827e-05 -3.22854e-12 2.19953e-12)
(1.96827e-05 -2.1054e-12 2.47183e-12)
(1.96827e-05 -2.11302e-12 2.32222e-12)
(1.96827e-05 -2.7715e-12 2.02071e-12)
(1.96827e-05 -4.2075e-12 1.87554e-12)
(1.96827e-05 -4.58904e-12 1.61225e-12)
(1.96827e-05 -3.03406e-12 7.42611e-13)
(1.96827e-05 4.48342e-13 2.04987e-13)
(1.96827e-05 3.40319e-12 1.19385e-12)
(1.96827e-05 4.76048e-12 2.46313e-12)
(1.96827e-05 3.91679e-12 2.55226e-12)
(1.96827e-05 2.6969e-12 2.0414e-12)
(1.96827e-05 1.08664e-12 1.46132e-12)
(1.96827e-05 6.60514e-13 9.88328e-13)
(1.96827e-05 8.51266e-13 7.22355e-13)
(1.96827e-05 1.38232e-12 9.97344e-13)
(1.96827e-05 8.02724e-13 9.6621e-13)
(1.96827e-05 -3.00247e-13 5.94682e-13)
(1.96827e-05 -2.1003e-12 7.58304e-13)
(1.96827e-05 -2.83188e-12 7.22824e-13)
(1.96827e-05 -1.87707e-12 -4.99857e-14)
(1.96827e-05 5.99751e-13 -3.63294e-13)
(1.96827e-05 2.37736e-12 5.74428e-13)
(1.96827e-05 2.36553e-12 1.54827e-12)
(1.96827e-05 2.1705e-13 1.91513e-12)
(1.96827e-05 -1.44304e-12 1.58331e-12)
(1.96827e-05 -1.83458e-12 5.56984e-13)
(1.96827e-05 -7.10859e-13 -1.88365e-13)
(1.96827e-05 1.42619e-13 7.97725e-14)
(1.96827e-05 2.98333e-13 7.08852e-13)
(1.96827e-05 -2.26009e-13 7.22867e-13)
(1.96828e-05 -2.41002e-13 9.49436e-13)
(1.96828e-05 2.59125e-13 4.59545e-13)
(1.96828e-05 1.4721e-12 3.95923e-13)
(1.96828e-05 2.80161e-12 1.94272e-13)
(1.96828e-05 3.92807e-12 6.19825e-13)
(1.96828e-05 4.7092e-12 4.61778e-13)
(1.96828e-05 5.12132e-12 7.45592e-13)
(1.96828e-05 5.13403e-12 5.63471e-13)
(1.96828e-05 4.73385e-12 6.49645e-13)
(1.96827e-05 4.09794e-12 3.72032e-13)
(1.96827e-05 3.39966e-12 1.9285e-13)
(1.96827e-05 3.11205e-12 1.0478e-13)
(1.96827e-05 3.6664e-12 2.57926e-13)
(1.96828e-05 5.22689e-12 2.91077e-13)
(1.96828e-05 7.12788e-12 2.30729e-13)
(1.96828e-05 7.94503e-12 3.77235e-13)
(1.96828e-05 6.8759e-12 7.79163e-13)
(1.96828e-05 3.48623e-12 4.78703e-13)
(1.96828e-05 6.73285e-13 -1.03717e-12)
(1.96828e-05 -3.76567e-13 -3.43175e-12)
(1.96828e-05 -1.96494e-13 -5.5765e-12)
(1.96828e-05 -9.82773e-13 -5.96025e-12)
(1.96827e-05 -4.25869e-12 -5.4088e-12)
(1.96826e-05 -9.94407e-12 -4.26846e-12)
(1.96824e-05 -1.58523e-11 -2.90802e-12)
(1.96821e-05 -2.08161e-11 1.2009e-12)
(1.96815e-05 -2.52229e-11 1.04825e-11)
(1.96805e-05 -3.04904e-11 3.38469e-11)
(1.9679e-05 -3.84353e-11 9.77723e-11)
(1.96766e-05 -5.20711e-11 1.96166e-10)
(1.96733e-05 -7.7905e-11 1.48432e-10)
(1.96672e-05 -1.10916e-10 8.70771e-10)
(1.96593e-05 -1.28775e-10 2.42124e-09)
(1.41088e-05 -5.24161e-09 7.99332e-08)
(1.4052e-05 4.74341e-09 -2.95601e-08)
(1.40808e-05 -1.41853e-09 4.91047e-09)
(1.40706e-05 -1.23366e-10 7.80659e-10)
(1.4076e-05 -5.88274e-10 -2.4764e-09)
(1.40804e-05 -3.88714e-10 3.79747e-11)
(1.40807e-05 -1.8565e-10 6.4431e-11)
(1.40817e-05 -1.52708e-10 -2.29557e-10)
(1.40826e-05 -8.69528e-11 -1.02455e-10)
(1.4083e-05 -2.491e-11 -4.24089e-12)
(1.40833e-05 1.37138e-11 1.22161e-11)
(1.40835e-05 3.86487e-11 1.86903e-11)
(1.40837e-05 5.44028e-11 3.09365e-11)
(1.40838e-05 6.1222e-11 3.64676e-11)
(1.40838e-05 6.31379e-11 3.55062e-11)
(1.40838e-05 6.2249e-11 3.17716e-11)
(1.40838e-05 5.91485e-11 2.74707e-11)
(1.40838e-05 5.38457e-11 2.4043e-11)
(1.40838e-05 4.71237e-11 2.05247e-11)
(1.40838e-05 4.02301e-11 1.76743e-11)
(1.40838e-05 3.24582e-11 1.35268e-11)
(1.40837e-05 2.54841e-11 9.79634e-12)
(1.40837e-05 1.9033e-11 5.86547e-12)
(1.40837e-05 1.40934e-11 3.10265e-12)
(1.40837e-05 1.06245e-11 1.20328e-12)
(1.40837e-05 8.36897e-12 4.31822e-13)
(1.40837e-05 6.57868e-12 6.7861e-13)
(1.40837e-05 4.48641e-12 7.54519e-13)
(1.40837e-05 2.38485e-12 3.69326e-13)
(1.40837e-05 5.27722e-13 -8.08974e-14)
(1.40837e-05 -8.15961e-13 -7.34909e-13)
(1.40837e-05 -1.87301e-12 -1.2207e-12)
(1.40837e-05 -2.74313e-12 -1.75061e-12)
(1.40837e-05 -3.5469e-12 -2.30092e-12)
(1.40837e-05 -4.20286e-12 -2.65571e-12)
(1.40837e-05 -4.27215e-12 -2.86742e-12)
(1.40837e-05 -3.82324e-12 -2.46088e-12)
(1.40837e-05 -3.36936e-12 -1.75071e-12)
(1.40837e-05 -3.19846e-12 -1.46149e-12)
(1.40837e-05 -3.51253e-12 -1.58771e-12)
(1.40837e-05 -4.03852e-12 -1.68266e-12)
(1.40837e-05 -4.05597e-12 -1.90936e-12)
(1.40837e-05 -2.91412e-12 -1.94849e-12)
(1.40837e-05 -9.50204e-13 -1.10893e-12)
(1.40837e-05 1.09732e-12 3.61621e-13)
(1.40837e-05 1.92026e-12 1.48363e-12)
(1.40837e-05 1.89866e-12 1.62462e-12)
(1.40837e-05 1.22113e-12 9.60754e-13)
(1.40837e-05 5.03601e-13 3.43288e-13)
(1.40837e-05 2.45646e-13 -2.56671e-13)
(1.40837e-05 5.1608e-13 -7.06088e-14)
(1.40837e-05 6.76366e-13 2.67528e-13)
(1.40837e-05 5.79208e-13 3.61187e-13)
(1.40837e-05 -5.05712e-14 -9.42868e-14)
(1.40837e-05 -7.50305e-13 -2.81364e-13)
(1.40837e-05 -1.03883e-12 -4.47277e-13)
(1.40837e-05 -3.35594e-13 -5.30383e-13)
(1.40837e-05 1.09213e-12 -6.56267e-14)
(1.40837e-05 2.39919e-12 1.02498e-12)
(1.40837e-05 2.18101e-12 1.65443e-12)
(1.40837e-05 1.23437e-12 1.59518e-12)
(1.40837e-05 1.89381e-13 7.87053e-13)
(1.40837e-05 -1.64231e-13 -1.94963e-13)
(1.40837e-05 8.02786e-14 -8.70884e-13)
(1.40837e-05 2.81896e-13 -7.65831e-13)
(1.40837e-05 1.07111e-13 -6.08666e-13)
(1.40837e-05 -1.97682e-13 -4.71109e-13)
(1.40837e-05 -3.01372e-13 -2.96521e-13)
(1.40837e-05 -2.02297e-13 -2.73996e-13)
(1.40837e-05 3.52281e-13 9.06577e-14)
(1.40837e-05 8.8051e-13 4.02613e-13)
(1.40837e-05 1.46724e-12 9.43543e-13)
(1.40837e-05 1.81824e-12 1.18359e-12)
(1.40837e-05 2.13034e-12 1.53307e-12)
(1.40837e-05 2.1321e-12 1.46062e-12)
(1.40837e-05 2.05227e-12 1.30509e-12)
(1.40837e-05 1.74641e-12 6.47962e-13)
(1.40837e-05 1.47248e-12 5.63591e-14)
(1.40837e-05 1.42211e-12 -2.31245e-13)
(1.40837e-05 2.02828e-12 8.68032e-16)
(1.40837e-05 3.19669e-12 6.20943e-13)
(1.40837e-05 4.42215e-12 1.21062e-12)
(1.40838e-05 4.90501e-12 1.69376e-12)
(1.40838e-05 3.83195e-12 1.49029e-12)
(1.40838e-05 1.6645e-12 8.12858e-13)
(1.40838e-05 -4.6089e-13 -9.18624e-13)
(1.40838e-05 -1.53922e-12 -2.90082e-12)
(1.40838e-05 -1.81431e-12 -4.27686e-12)
(1.40838e-05 -1.97492e-12 -4.53667e-12)
(1.40837e-05 -2.36393e-12 -4.08767e-12)
(1.40837e-05 -1.44167e-12 -2.85141e-12)
(1.40835e-05 3.33429e-12 1.83209e-13)
(1.40833e-05 1.56292e-11 8.65731e-12)
(1.40828e-05 3.90134e-11 2.59338e-11)
(1.40822e-05 8.08475e-11 6.06198e-11)
(1.4081e-05 1.46148e-10 1.35599e-10)
(1.40793e-05 2.36552e-10 2.54386e-10)
(1.40769e-05 4.17782e-10 3.04555e-10)
(1.40722e-05 5.95597e-10 9.52007e-10)
(1.40658e-05 2.97921e-10 1.99514e-09)
(1.48783e-05 8.9039e-09 8.21463e-08)
(1.48166e-05 -5.618e-09 -3.02393e-08)
(1.48471e-05 2.16682e-09 4.90409e-09)
(1.48365e-05 -5.87899e-10 9.74037e-10)
(1.48424e-05 -5.50877e-11 -2.35547e-09)
(1.4847e-05 -2.13114e-11 2.14991e-10)
(1.48473e-05 -1.89306e-10 2.36527e-10)
(1.48484e-05 -1.39242e-10 -9.92516e-11)
(1.48494e-05 -8.1084e-11 -1.78942e-11)
(1.48499e-05 -5.16217e-11 4.41373e-11)
(1.48502e-05 -2.50373e-11 2.01155e-11)
(1.48504e-05 3.35307e-12 1.33624e-12)
(1.48506e-05 2.64951e-11 -8.26695e-12)
(1.48507e-05 4.16168e-11 -1.08464e-11)
(1.48507e-05 5.07685e-11 -1.59426e-11)
(1.48507e-05 5.46379e-11 -1.68942e-11)
(1.48507e-05 5.45917e-11 -1.80448e-11)
(1.48507e-05 5.24605e-11 -1.68713e-11)
(1.48506e-05 4.84122e-11 -1.59315e-11)
(1.48506e-05 4.38823e-11 -1.42726e-11)
(1.48506e-05 3.86216e-11 -1.27099e-11)
(1.48505e-05 3.34052e-11 -1.12843e-11)
(1.48505e-05 2.80935e-11 -9.92999e-12)
(1.48505e-05 2.27434e-11 -8.25705e-12)
(1.48504e-05 1.71303e-11 -6.51659e-12)
(1.48504e-05 1.21653e-11 -5.48728e-12)
(1.48504e-05 8.22617e-12 -3.8028e-12)
(1.48504e-05 5.67548e-12 -3.42483e-12)
(1.48504e-05 4.0906e-12 -2.39611e-12)
(1.48504e-05 3.08512e-12 -2.22756e-12)
(1.48504e-05 2.39954e-12 -1.58153e-12)
(1.48504e-05 1.9854e-12 -2.15701e-12)
(1.48504e-05 1.74731e-12 -1.88866e-12)
(1.48504e-05 1.71104e-12 -2.50639e-12)
(1.48504e-05 1.80109e-12 -2.14125e-12)
(1.48504e-05 1.93805e-12 -2.57285e-12)
(1.48504e-05 1.9435e-12 -2.18411e-12)
(1.48504e-05 2.10293e-12 -2.64842e-12)
(1.48504e-05 2.72659e-12 -2.61541e-12)
(1.48504e-05 3.95065e-12 -3.8417e-12)
(1.48504e-05 5.41124e-12 -4.10066e-12)
(1.48504e-05 6.19764e-12 -3.89223e-12)
(1.48504e-05 5.62657e-12 -3.20615e-12)
(1.48504e-05 4.3787e-12 -3.18497e-12)
(1.48504e-05 3.23503e-12 -2.38648e-12)
(1.48504e-05 2.56335e-12 -2.39112e-12)
(1.48504e-05 2.27075e-12 -1.8195e-12)
(1.48504e-05 2.25109e-12 -2.3184e-12)
(1.48504e-05 2.29222e-12 -1.87527e-12)
(1.48504e-05 2.29755e-12 -2.28176e-12)
(1.48504e-05 2.06201e-12 -1.76471e-12)
(1.48504e-05 1.94688e-12 -2.12915e-12)
(1.48504e-05 2.31871e-12 -2.00743e-12)
(1.48504e-05 3.25727e-12 -3.20548e-12)
(1.48504e-05 4.459e-12 -3.37215e-12)
(1.48504e-05 5.06764e-12 -3.15282e-12)
(1.48504e-05 4.31439e-12 -2.56958e-12)
(1.48504e-05 3.05295e-12 -2.64652e-12)
(1.48504e-05 2.18349e-12 -2.2093e-12)
(1.48504e-05 2.41097e-12 -2.8692e-12)
(1.48504e-05 3.20851e-12 -2.76881e-12)
(1.48505e-05 3.60626e-12 -2.45358e-12)
(1.48504e-05 2.87696e-12 -1.89248e-12)
(1.48504e-05 1.85761e-12 -1.91528e-12)
(1.48504e-05 1.17568e-12 -1.46495e-12)
(1.48505e-05 1.40955e-12 -1.84159e-12)
(1.48505e-05 2.12695e-12 -1.89962e-12)
(1.48505e-05 3.10948e-12 -2.01609e-12)
(1.48505e-05 3.88036e-12 -2.20668e-12)
(1.48505e-05 4.72714e-12 -2.26906e-12)
(1.48505e-05 5.39236e-12 -2.48747e-12)
(1.48505e-05 6.13827e-12 -2.43221e-12)
(1.48505e-05 6.62601e-12 -2.60344e-12)
(1.48505e-05 7.03119e-12 -2.52518e-12)
(1.48505e-05 7.13069e-12 -2.62588e-12)
(1.48505e-05 7.11513e-12 -2.39061e-12)
(1.48505e-05 6.8509e-12 -2.40078e-12)
(1.48505e-05 6.5269e-12 -2.27085e-12)
(1.48505e-05 5.82985e-12 -2.20557e-12)
(1.48505e-05 4.68137e-12 -1.6514e-12)
(1.48505e-05 2.91366e-12 -9.67773e-13)
(1.48505e-05 1.59885e-12 -1.21988e-12)
(1.48505e-05 9.75326e-13 -1.18137e-12)
(1.48505e-05 2.33784e-12 -2.71802e-12)
(1.48505e-05 4.63399e-12 -3.81452e-12)
(1.48505e-05 7.17548e-12 -5.08488e-12)
(1.48505e-05 9.40337e-12 -6.84046e-12)
(1.48505e-05 1.29536e-11 -1.02628e-11)
(1.48504e-05 1.95306e-11 -1.4089e-11)
(1.48504e-05 2.98132e-11 -2.01992e-11)
(1.48503e-05 4.45759e-11 -2.73245e-11)
(1.48502e-05 6.43367e-11 -3.58977e-11)
(1.48499e-05 8.9652e-11 -4.48113e-11)
(1.48494e-05 1.21355e-10 -5.37191e-11)
(1.48487e-05 1.58346e-10 -5.67696e-11)
(1.48476e-05 2.02982e-10 -2.90716e-11)
(1.48459e-05 2.47313e-10 3.77854e-11)
(1.48434e-05 2.02702e-10 4.28094e-11)
(1.48386e-05 1.90004e-10 6.79188e-10)
(1.48319e-05 5.58046e-10 1.81789e-09)
(2.50226e-05 1.75331e-08 1.07891e-07)
(2.49468e-05 -2.13843e-09 -3.69209e-08)
(2.49909e-05 1.35866e-09 5.63465e-09)
(2.49756e-05 -1.15068e-09 1.05015e-09)
(2.49841e-05 -1.57977e-09 -3.81325e-09)
(2.49906e-05 -8.60644e-10 -1.30422e-10)
(2.49912e-05 -6.9997e-10 9.18397e-11)
(2.49928e-05 -5.74795e-10 -3.34064e-10)
(2.49943e-05 -3.66745e-10 -1.42591e-10)
(2.4995e-05 -2.23547e-10 -2.93609e-11)
(2.49954e-05 -1.21262e-10 -1.51623e-11)
(2.49958e-05 -3.66963e-11 -2.31906e-11)
(2.49961e-05 3.3021e-11 -1.01136e-11)
(2.49962e-05 8.12147e-11 -8.72962e-12)
(2.49963e-05 1.12088e-10 -3.2333e-12)
(2.49963e-05 1.2756e-10 -5.33725e-12)
(2.49963e-05 1.32659e-10 -2.83531e-12)
(2.49962e-05 1.31129e-10 -2.7813e-12)
(2.49962e-05 1.24086e-10 -8.87632e-13)
(2.49961e-05 1.13718e-10 8.88385e-13)
(2.49961e-05 1.0147e-10 1.66394e-12)
(2.4996e-05 8.70217e-11 1.94848e-12)
(2.4996e-05 7.1742e-11 1.83246e-12)
(2.49959e-05 5.61966e-11 2.39072e-12)
(2.49959e-05 4.10873e-11 1.55793e-12)
(2.49959e-05 2.80311e-11 2.88704e-12)
(2.49959e-05 1.77455e-11 3.99231e-12)
(2.49959e-05 1.15675e-11 6.07829e-12)
(2.49958e-05 7.76784e-12 4.21082e-12)
(2.49958e-05 5.71527e-12 5.34432e-12)
(2.49958e-05 3.91895e-12 3.1134e-12)
(2.49958e-05 2.80222e-12 4.20689e-12)
(2.49958e-05 1.64364e-12 2.12536e-12)
(2.49958e-05 1.28094e-12 3.32904e-12)
(2.49958e-05 1.0109e-12 1.52433e-12)
(2.49958e-05 1.03481e-12 3.09224e-12)
(2.49958e-05 5.82439e-13 1.40353e-12)
(2.49958e-05 1.10283e-12 2.6135e-12)
(2.49959e-05 2.47055e-12 5.41591e-13)
(2.49959e-05 5.26981e-12 1.12026e-12)
(2.49959e-05 7.90208e-12 2.69358e-14)
(2.49959e-05 9.05829e-12 1.2917e-12)
(2.49959e-05 7.45797e-12 3.92755e-13)
(2.49959e-05 4.61481e-12 9.53823e-13)
(2.49959e-05 2.10333e-12 -4.89888e-13)
(2.49959e-05 1.49035e-12 1.29804e-12)
(2.49959e-05 1.64012e-12 -2.10115e-13)
(2.49959e-05 2.56568e-12 1.21859e-12)
(2.49959e-05 3.07073e-12 -5.00997e-13)
(2.49959e-05 3.45199e-12 1.21533e-12)
(2.49959e-05 2.90629e-12 -6.135e-13)
(2.49959e-05 3.1327e-12 9.41154e-13)
(2.49959e-05 3.94921e-12 -9.8708e-13)
(2.49959e-05 6.23021e-12 -5.57652e-14)
(2.49959e-05 8.26706e-12 -9.65832e-13)
(2.49959e-05 9.0881e-12 6.09694e-13)
(2.49959e-05 7.25337e-12 -2.50195e-13)
(2.49959e-05 4.53382e-12 3.56276e-13)
(2.49959e-05 2.56045e-12 -1.20588e-12)
(2.49959e-05 3.45782e-12 1.76451e-13)
(2.49959e-05 5.15706e-12 -3.14089e-13)
(2.49959e-05 5.93301e-12 1.23885e-12)
(2.49959e-05 4.42312e-12 4.17072e-13)
(2.49959e-05 2.22519e-12 8.81039e-13)
(2.49959e-05 9.89042e-13 -5.33965e-13)
(2.49959e-05 2.05923e-12 4.27613e-13)
(2.49959e-05 4.11567e-12 -3.78873e-13)
(2.49959e-05 6.71248e-12 -4.15184e-15)
(2.49959e-05 8.69176e-12 -2.38016e-13)
(2.49959e-05 1.03611e-11 -4.60214e-13)
(2.4996e-05 1.19179e-11 -7.06857e-13)
(2.4996e-05 1.33295e-11 -7.17549e-13)
(2.4996e-05 1.4499e-11 -8.99671e-13)
(2.4996e-05 1.51352e-11 -8.50739e-13)
(2.4996e-05 1.51635e-11 -9.65031e-13)
(2.4996e-05 1.45584e-11 -7.63465e-13)
(2.49959e-05 1.32432e-11 -7.92246e-13)
(2.49959e-05 1.1435e-11 -6.04432e-13)
(2.49959e-05 8.99976e-12 -7.17107e-13)
(2.49959e-05 5.89816e-12 -2.07251e-13)
(2.49959e-05 2.27449e-12 -1.02627e-12)
(2.4996e-05 -6.42014e-13 -7.17759e-13)
(2.4996e-05 -1.55008e-12 -3.16554e-12)
(2.4996e-05 1.52224e-12 -2.40688e-12)
(2.4996e-05 6.41417e-12 -4.30447e-12)
(2.4996e-05 1.14447e-11 -4.2489e-12)
(2.4996e-05 1.62125e-11 -7.03499e-12)
(2.49959e-05 2.3782e-11 -8.40598e-12)
(2.49959e-05 3.80516e-11 -1.18576e-11)
(2.49958e-05 6.39995e-11 -1.04895e-11)
(2.49957e-05 1.03892e-10 -8.50174e-12)
(2.49954e-05 1.61738e-10 9.42695e-13)
(2.4995e-05 2.42409e-10 1.8397e-11)
(2.49943e-05 3.56079e-10 5.45209e-11)
(2.49932e-05 5.15577e-10 1.22604e-10)
(2.49916e-05 7.37232e-10 2.7194e-10)
(2.4989e-05 1.02468e-09 5.17834e-10)
(2.49855e-05 1.39358e-09 7.74233e-10)
(2.49786e-05 1.9152e-09 2.07352e-09)
(2.49701e-05 2.01848e-09 3.54342e-09)
(3.0507e-05 2.35392e-08 1.12047e-07)
(3.04273e-05 -3.90671e-09 -3.69049e-08)
(3.04727e-05 9.73955e-10 7.11138e-09)
(3.04553e-05 -1.57711e-09 8.86219e-10)
(3.04653e-05 -2.20992e-09 -4.19358e-09)
(3.04722e-05 -1.0465e-09 -1.73347e-10)
(3.04725e-05 -8.21755e-10 3.31502e-11)
(3.04743e-05 -6.81627e-10 -4.16515e-10)
(3.04759e-05 -4.28257e-10 -2.44607e-10)
(3.04767e-05 -2.42487e-10 -7.66759e-11)
(3.04772e-05 -1.10546e-10 -7.32068e-11)
(3.04776e-05 2.76278e-12 -5.3285e-11)
(3.04779e-05 9.3471e-11 -4.23697e-11)
(3.04781e-05 1.59198e-10 -2.20972e-11)
(3.04782e-05 1.98681e-10 -1.95441e-11)
(3.04782e-05 2.17739e-10 -1.2355e-11)
(3.04782e-05 2.21794e-10 -1.00489e-11)
(3.04782e-05 2.14371e-10 -5.96167e-12)
(3.04781e-05 2.01069e-10 -2.31408e-12)
(3.04781e-05 1.81252e-10 1.46483e-12)
(3.0478e-05 1.57948e-10 4.16717e-12)
(3.04779e-05 1.31448e-10 5.10486e-12)
(3.04779e-05 1.0396e-10 5.71686e-12)
(3.04778e-05 7.64521e-11 4.84103e-12)
(3.04778e-05 5.11592e-11 5.69413e-12)
(3.04778e-05 2.9523e-11 6.06624e-12)
(3.04778e-05 1.40506e-11 9.49081e-12)
(3.04778e-05 3.90098e-12 8.71511e-12)
(3.04777e-05 -1.22604e-12 1.14234e-11)
(3.04777e-05 -4.76725e-12 8.20284e-12)
(3.04777e-05 -6.62037e-12 1.03925e-11)
(3.04777e-05 -8.83277e-12 7.65314e-12)
(3.04777e-05 -1.00473e-11 1.00898e-11)
(3.04777e-05 -1.12304e-11 7.57717e-12)
(3.04777e-05 -1.12406e-11 9.71164e-12)
(3.04777e-05 -1.19659e-11 7.4477e-12)
(3.04777e-05 -1.21252e-11 9.52553e-12)
(3.04778e-05 -1.14405e-11 6.3196e-12)
(3.04778e-05 -8.3865e-12 7.29359e-12)
(3.04778e-05 -4.40789e-12 4.18116e-12)
(3.04778e-05 -1.48596e-13 4.93396e-12)
(3.04778e-05 1.26977e-12 3.68415e-12)
(3.04778e-05 -3.4957e-13 4.7408e-12)
(3.04778e-05 -3.99816e-12 2.5972e-12)
(3.04778e-05 -6.28907e-12 4.85258e-12)
(3.04778e-05 -6.59708e-12 2.55183e-12)
(3.04778e-05 -4.86604e-12 4.86274e-12)
(3.04778e-05 -3.20423e-12 1.83682e-12)
(3.04778e-05 -1.38718e-12 4.28247e-12)
(3.04778e-05 -1.24806e-12 1.95932e-12)
(3.04778e-05 -1.42874e-12 4.09794e-12)
(3.04778e-05 -1.35287e-12 1.21081e-12)
(3.04778e-05 5.16549e-13 3.12636e-12)
(3.04778e-05 3.15401e-12 5.82662e-13)
(3.04778e-05 6.1868e-12 2.4815e-12)
(3.04778e-05 6.5696e-12 1.73508e-12)
(3.04778e-05 3.96141e-12 2.49037e-12)
(3.04778e-05 -2.88117e-13 8.06362e-15)
(3.04778e-05 -2.44495e-12 2.41309e-12)
(3.04779e-05 -1.60867e-12 1.09126e-12)
(3.04779e-05 1.07983e-12 3.12011e-12)
(3.04779e-05 1.84774e-12 2.47277e-12)
(3.04779e-05 2.32113e-14 2.92469e-12)
(3.04779e-05 -2.97417e-12 7.70278e-13)
(3.04779e-05 -3.73222e-12 2.01997e-12)
(3.04779e-05 -1.8594e-12 3.57614e-13)
(3.04779e-05 2.38096e-12 1.35226e-12)
(3.04779e-05 6.96143e-12 8.01701e-13)
(3.04779e-05 1.10243e-11 2.86562e-13)
(3.04779e-05 1.43157e-11 -3.97136e-13)
(3.04779e-05 1.74204e-11 -7.98176e-13)
(3.04779e-05 2.01208e-11 -1.06831e-12)
(3.04779e-05 2.23535e-11 -1.12852e-12)
(3.04779e-05 2.3589e-11 -1.2958e-12)
(3.04779e-05 2.3684e-11 -1.15129e-12)
(3.04779e-05 2.23425e-11 -1.06489e-12)
(3.04779e-05 1.96901e-11 -7.05248e-13)
(3.04779e-05 1.59771e-11 -5.80827e-13)
(3.04779e-05 1.15955e-11 4.91003e-14)
(3.04779e-05 6.5778e-12 -6.64926e-13)
(3.04779e-05 1.7174e-12 6.13199e-14)
(3.04779e-05 -2.61828e-12 -2.89806e-12)
(3.04779e-05 -3.19695e-12 -1.28898e-12)
(3.04779e-05 1.8208e-13 -3.36182e-12)
(3.04779e-05 6.94063e-12 -1.15913e-12)
(3.04779e-05 1.2295e-11 -2.77938e-12)
(3.04779e-05 1.65534e-11 -2.63175e-12)
(3.04779e-05 2.18643e-11 -5.05603e-12)
(3.04778e-05 3.48137e-11 -5.21904e-13)
(3.04777e-05 5.88722e-11 5.06977e-12)
(3.04776e-05 9.72024e-11 2.04971e-11)
(3.04773e-05 1.51493e-10 4.32962e-11)
(3.04768e-05 2.27676e-10 8.50557e-11)
(3.0476e-05 3.35126e-10 1.52134e-10)
(3.04749e-05 4.87297e-10 2.68353e-10)
(3.0473e-05 6.99967e-10 4.81514e-10)
(3.04703e-05 9.81422e-10 8.08798e-10)
(3.04665e-05 1.33887e-09 1.12815e-09)
(3.04592e-05 1.88078e-09 2.57235e-09)
(3.04503e-05 2.01103e-09 4.09363e-09)
(3.70492e-05 7.46323e-08 1.14456e-07)
(3.69573e-05 -2.17012e-08 -3.88449e-08)
(3.70176e-05 -4.54673e-10 8.20256e-09)
(3.69927e-05 7.44151e-10 1.15313e-10)
(3.70043e-05 -3.21287e-09 -5.07379e-09)
(3.70122e-05 -6.54978e-10 -6.62142e-10)
(3.70119e-05 -2.96385e-11 -3.98182e-10)
(3.70138e-05 -2.5194e-10 -7.84709e-10)
(3.70157e-05 -9.98238e-11 -4.97135e-10)
(3.70166e-05 6.05294e-11 -2.63942e-10)
(3.70171e-05 1.41685e-10 -1.90177e-10)
(3.70177e-05 2.03879e-10 -1.54509e-10)
(3.7018e-05 2.72995e-10 -1.13324e-10)
(3.70182e-05 3.16482e-10 -8.47804e-11)
(3.70183e-05 3.39243e-10 -6.65118e-11)
(3.70183e-05 3.36132e-10 -5.38646e-11)
(3.70183e-05 3.23288e-10 -4.21345e-11)
(3.70183e-05 2.96637e-10 -3.09974e-11)
(3.70182e-05 2.6842e-10 -2.05356e-11)
(3.70182e-05 2.32498e-10 -1.0691e-11)
(3.70181e-05 1.93826e-10 -2.17725e-12)
(3.70181e-05 1.5085e-10 5.53386e-12)
(3.7018e-05 1.08929e-10 1.25901e-11)
(3.7018e-05 6.8301e-11 1.92047e-11)
(3.70179e-05 3.07743e-11 2.35261e-11)
(3.70179e-05 1.61386e-12 2.81654e-11)
(3.70179e-05 -2.03792e-11 2.8135e-11)
(3.70179e-05 -3.02114e-11 3.08546e-11)
(3.70179e-05 -3.65457e-11 2.92098e-11)
(3.70179e-05 -3.75899e-11 2.80761e-11)
(3.70179e-05 -4.02827e-11 2.51062e-11)
(3.70179e-05 -4.0404e-11 2.41585e-11)
(3.70179e-05 -4.26744e-11 2.21212e-11)
(3.70179e-05 -4.19746e-11 2.19188e-11)
(3.70179e-05 -4.25682e-11 1.9736e-11)
(3.70179e-05 -4.19707e-11 1.97286e-11)
(3.70179e-05 -4.33202e-11 1.81574e-11)
(3.70179e-05 -3.98235e-11 1.82374e-11)
(3.70179e-05 -3.58781e-11 1.61597e-11)
(3.70179e-05 -2.83187e-11 1.50656e-11)
(3.70179e-05 -2.16978e-11 1.31539e-11)
(3.70179e-05 -1.76507e-11 1.19781e-11)
(3.70179e-05 -2.02168e-11 9.92745e-12)
(3.7018e-05 -2.38572e-11 1.00346e-11)
(3.7018e-05 -2.72086e-11 1.02019e-11)
(3.7018e-05 -2.40628e-11 1.21911e-11)
(3.7018e-05 -2.14465e-11 1.08064e-11)
(3.7018e-05 -1.65395e-11 1.04096e-11)
(3.7018e-05 -1.48233e-11 8.60177e-12)
(3.7018e-05 -1.33504e-11 8.66844e-12)
(3.7018e-05 -1.53724e-11 7.26385e-12)
(3.7018e-05 -1.34631e-11 8.03426e-12)
(3.7018e-05 -1.21838e-11 6.73606e-12)
(3.7018e-05 -7.49719e-12 6.54432e-12)
(3.7018e-05 -3.79529e-12 5.64589e-12)
(3.7018e-05 -2.14152e-12 5.49054e-12)
(3.7018e-05 -6.77118e-12 4.08736e-12)
(3.7018e-05 -1.27105e-11 4.68446e-12)
(3.7018e-05 -1.77935e-11 5.68394e-12)
(3.7018e-05 -1.53991e-11 8.04533e-12)
(3.7018e-05 -1.1385e-11 7.95066e-12)
(3.7018e-05 -8.54193e-12 7.34369e-12)
(3.7018e-05 -1.13227e-11 5.1789e-12)
(3.7018e-05 -1.47257e-11 4.87841e-12)
(3.7018e-05 -1.63211e-11 5.11067e-12)
(3.7018e-05 -1.24305e-11 6.02458e-12)
(3.70181e-05 -5.8414e-12 5.28531e-12)
(3.70181e-05 2.04784e-12 3.87111e-12)
(3.70181e-05 9.6819e-12 1.42247e-12)
(3.70181e-05 1.57712e-11 -8.84572e-13)
(3.70181e-05 2.19959e-11 -2.41975e-12)
(3.70181e-05 2.70698e-11 -3.53537e-12)
(3.70181e-05 3.15556e-11 -4.369e-12)
(3.70181e-05 3.36902e-11 -4.88209e-12)
(3.70181e-05 3.42296e-11 -4.90822e-12)
(3.70181e-05 3.17901e-11 -4.50734e-12)
(3.70181e-05 2.72825e-11 -3.73189e-12)
(3.70181e-05 2.09325e-11 -2.57953e-12)
(3.70181e-05 1.40593e-11 -1.52369e-12)
(3.70181e-05 7.54161e-12 -1.77596e-13)
(3.70181e-05 -5.6465e-13 -5.62225e-13)
(3.70181e-05 -6.09815e-12 7.11261e-13)
(3.70181e-05 -1.03229e-11 3.84777e-13)
(3.70181e-05 -5.97509e-12 2.2097e-12)
(3.70181e-05 7.07609e-13 1.23605e-12)
(3.70181e-05 5.36746e-12 5.24451e-13)
(3.70181e-05 1.34093e-12 -3.82358e-13)
(3.70181e-05 -6.20349e-12 4.55357e-12)
(3.7018e-05 -1.55061e-11 1.60399e-11)
(3.70179e-05 -1.92617e-11 3.90783e-11)
(3.70177e-05 -2.38992e-11 7.48646e-11)
(3.70174e-05 -3.22026e-11 1.33368e-10)
(3.70168e-05 -4.89195e-11 2.26843e-10)
(3.70159e-05 -7.14897e-11 3.75813e-10)
(3.70146e-05 -9.64538e-11 6.0894e-10)
(3.70125e-05 -1.01963e-10 9.88767e-10)
(3.70095e-05 -8.31457e-11 1.53482e-09)
(3.70055e-05 -2.65174e-11 2.12327e-09)
(3.69976e-05 5.86356e-10 3.90373e-09)
(3.69882e-05 1.14763e-09 5.41428e-09)
(5.51386e-05 7.49542e-10 8.28382e-08)
(5.51051e-05 5.30708e-09 -5.16905e-10)
(5.51312e-05 -2.44229e-09 1.95602e-09)
(5.51167e-05 -2.27602e-09 -3.89245e-09)
(5.5124e-05 -1.41131e-09 -5.99096e-09)
(5.51322e-05 -4.22429e-10 -2.72672e-09)
(5.51331e-05 -3.20712e-10 -2.38395e-09)
(5.51355e-05 -2.4626e-10 -2.0589e-09)
(5.51377e-05 -1.47502e-11 -1.36664e-09)
(5.5139e-05 1.46891e-10 -9.22615e-10)
(5.51399e-05 2.49287e-10 -6.7496e-10)
(5.51406e-05 3.4495e-10 -4.80218e-10)
(5.51411e-05 4.17831e-10 -3.3326e-10)
(5.51413e-05 4.59226e-10 -2.34653e-10)
(5.51415e-05 4.72467e-10 -1.68446e-10)
(5.51416e-05 4.65993e-10 -1.15529e-10)
(5.51416e-05 4.42857e-10 -7.50781e-11)
(5.51416e-05 4.09202e-10 -4.19792e-11)
(5.51415e-05 3.64978e-10 -1.68846e-11)
(5.51415e-05 3.14806e-10 3.77392e-12)
(5.51414e-05 2.60493e-10 2.09832e-11)
(5.51413e-05 2.07022e-10 3.8552e-11)
(5.51413e-05 1.56831e-10 5.51313e-11)
(5.51412e-05 1.11873e-10 7.0161e-11)
(5.51412e-05 7.40388e-11 8.28977e-11)
(5.51412e-05 4.3409e-11 8.88241e-11)
(5.51412e-05 2.02014e-11 9.25982e-11)
(5.51412e-05 1.89579e-12 9.08003e-11)
(5.51412e-05 -1.1458e-11 8.596e-11)
(5.51412e-05 -2.18845e-11 7.7941e-11)
(5.51412e-05 -2.90006e-11 6.99064e-11)
(5.51412e-05 -3.47377e-11 6.25667e-11)
(5.51412e-05 -3.8588e-11 5.62944e-11)
(5.51412e-05 -4.19919e-11 5.09975e-11)
(5.51412e-05 -4.3911e-11 4.75155e-11)
(5.51412e-05 -4.50424e-11 4.47851e-11)
(5.51412e-05 -4.3464e-11 4.28501e-11)
(5.51412e-05 -4.06524e-11 4.09927e-11)
(5.51412e-05 -3.66759e-11 3.85572e-11)
(5.51413e-05 -3.35063e-11 3.52856e-11)
(5.51413e-05 -3.07331e-11 3.16428e-11)
(5.51413e-05 -2.88986e-11 2.78293e-11)
(5.51413e-05 -2.64842e-11 2.5518e-11)
(5.51413e-05 -2.31018e-11 2.55508e-11)
(5.51413e-05 -1.848e-11 2.78175e-11)
(5.51413e-05 -1.5319e-11 2.92451e-11)
(5.51413e-05 -1.32061e-11 2.84049e-11)
(5.51413e-05 -1.31813e-11 2.56338e-11)
(5.51413e-05 -1.34236e-11 2.27507e-11)
(5.51413e-05 -1.41615e-11 2.05565e-11)
(5.51413e-05 -1.32425e-11 1.99077e-11)
(5.51414e-05 -1.2266e-11 1.93469e-11)
(5.51414e-05 -1.08222e-11 1.85945e-11)
(5.51414e-05 -1.04766e-11 1.69917e-11)
(5.51414e-05 -1.04437e-11 1.49738e-11)