/*--------------------------------*- C++ -*----------------------------------*\
| =========                 |                                                 |
| \\      /  F ield         | OpenFOAM: The Open Source CFD Toolbox           |
|  \\    /   O peration     | Version:  2412                                  |
|   \\  /    A nd           | Website:  www.openfoam.com                      |
|    \\/     M anipulation  |                                                 |
\*---------------------------------------------------------------------------*/
FoamFile
{
    version     2.0;
    format      ascii;
    arch        "LSB;label=32;scalar=64";
    class       volVectorField;
    location    "50";
    object      U;
}
// * * * * * * * * * * * * * * * * * * * * * * * * * * * * * * * * * * * * * //

dimensions      [0 1 -1 0 0 0 0];

internalField   nonuniform List<vector> 
3700
(
(5.69747e-06 8.02252e-09 7.22131e-08)
(5.65815e-06 -3.89608e-09 -2.35395e-08)
(5.68317e-06 1.45586e-09 2.77947e-09)
(5.67385e-06 -1.38548e-11 2.13278e-09)
(5.67574e-06 -1.00013e-10 -1.89184e-09)
(5.67798e-06 8.19131e-11 -3.98707e-11)
(5.67728e-06 8.20223e-12 2.46309e-10)
(5.67717e-06 2.79852e-12 -5.61159e-11)
(5.67735e-06 8.58909e-12 -4.56208e-11)
(5.67736e-06 6.10852e-12 -6.80941e-12)
(5.67735e-06 6.18989e-12 -2.23236e-12)
(5.67737e-06 7.4772e-12 -1.0913e-11)
(5.6774e-06 8.19548e-12 -6.64033e-12)
(5.67741e-06 7.02904e-12 -5.67235e-12)
(5.67742e-06 6.22578e-12 -2.87856e-12)
(5.67742e-06 5.53782e-12 -3.0845e-12)
(5.67742e-06 5.4829e-12 -2.33207e-12)
(5.67742e-06 6.17048e-12 -4.02695e-12)
(5.67743e-06 6.59949e-12 -6.95217e-12)
(5.67744e-06 7.48538e-12 -5.82989e-12)
(5.67745e-06 7.11251e-12 -6.77327e-12)
(5.67747e-06 7.27335e-12 -5.80189e-12)
(5.67749e-06 6.30151e-12 -7.4803e-12)
(5.67751e-06 5.56685e-12 -4.85695e-12)
(5.67752e-06 3.49108e-12 -3.53037e-12)
(5.67753e-06 2.46099e-12 -9.60815e-13)
(5.67753e-06 2.08817e-12 -1.9787e-12)
(5.67754e-06 2.34247e-12 -4.07626e-12)
(5.67756e-06 2.85895e-12 -4.25406e-12)
(5.67757e-06 1.7632e-12 -1.86378e-12)
(5.67757e-06 2.16786e-13 2.43423e-13)
(5.67757e-06 -5.68476e-13 6.15293e-13)
(5.67757e-06 -4.94366e-13 -1.49966e-12)
(5.67758e-06 1.2114e-13 -3.99757e-13)
(5.67757e-06 -4.90926e-14 -2.36752e-13)
(5.67757e-06 2.7752e-13 -7.83956e-13)
(5.67757e-06 7.42705e-13 -2.84216e-12)
(5.67758e-06 1.24603e-12 -1.50418e-12)
(5.67759e-06 4.02138e-13 -6.73349e-13)
(5.67759e-06 -1.10299e-13 1.59957e-12)
(5.67758e-06 -1.5399e-13 7.13882e-13)
(5.67758e-06 4.13962e-13 -2.03799e-12)
(5.67759e-06 6.48077e-13 -2.11802e-12)
(5.67759e-06 -1.3281e-12 7.54107e-13)
(5.67759e-06 -3.10965e-12 3.07822e-12)
(5.67758e-06 -3.80042e-12 3.41935e-12)
(5.67757e-06 -3.25932e-12 -7.23968e-13)
(5.67757e-06 -2.19301e-12 9.66016e-13)
(5.67757e-06 -2.03772e-12 1.57659e-12)
(5.67756e-06 -1.46867e-12 1.98441e-12)
(5.67756e-06 -1.05947e-12 -6.66362e-13)
(5.67755e-06 -6.49052e-13 1.20864e-12)
(5.67755e-06 -1.00538e-12 -1.02725e-13)
(5.67755e-06 -1.0162e-12 3.3894e-12)
(5.67754e-06 -1.35809e-12 2.44307e-12)
(5.67753e-06 -8.7607e-13 2.00867e-12)
(5.67753e-06 -3.38342e-13 -2.96505e-12)
(5.67753e-06 -1.86939e-13 7.21716e-13)
(5.67753e-06 -1.30116e-12 -4.73286e-13)
(5.67753e-06 -1.82122e-12 2.84741e-12)
(5.67753e-06 -2.33911e-12 3.79565e-13)
(5.67753e-06 -1.99116e-12 1.00695e-12)
(5.67753e-06 -1.72619e-12 -1.29497e-12)
(5.67753e-06 -1.05722e-12 -2.8637e-14)
(5.67754e-06 -1.01819e-12 -9.35307e-13)
(5.67754e-06 -6.05795e-13 2.01205e-13)
(5.67754e-06 -5.91362e-13 -1.0251e-12)
(5.67754e-06 -7.67528e-14 -4.94969e-13)
(5.67755e-06 1.12157e-13 -1.85542e-12)
(5.67755e-06 8.04897e-13 -1.32501e-12)
(5.67756e-06 8.31062e-13 -1.8628e-12)
(5.67756e-06 1.17438e-12 3.11176e-13)
(5.67756e-06 1.43321e-12 -1.32667e-13)
(5.67756e-06 2.37346e-12 -1.25992e-12)
(5.67756e-06 3.2352e-12 -5.72786e-12)
(5.67757e-06 3.83883e-12 -2.86089e-12)
(5.67759e-06 2.58977e-12 -2.99817e-12)
(5.67759e-06 1.83038e-12 1.41267e-12)
(5.67759e-06 9.56258e-13 5.07858e-14)
(5.67758e-06 1.25866e-12 -1.18275e-12)
(5.67759e-06 1.96723e-12 -5.57626e-12)
(5.67761e-06 2.38617e-12 -2.36311e-12)
(5.67762e-06 1.1664e-12 -1.37519e-12)
(5.67762e-06 6.37309e-14 2.99994e-12)
(5.67761e-06 -8.90242e-13 2.14211e-12)
(5.6776e-06 -7.17389e-13 1.04587e-12)
(5.6776e-06 -8.23408e-14 -2.99822e-12)
(5.67761e-06 1.16648e-13 4.49908e-14)
(5.67761e-06 -1.08251e-12 4.4564e-13)
(5.67761e-06 -1.87037e-12 3.73981e-12)
(5.6776e-06 -2.79121e-12 2.44495e-12)
(5.6776e-06 -2.66889e-12 2.78455e-12)
(5.67759e-06 -2.60967e-12 8.66542e-13)
(5.67759e-06 -1.86044e-12 1.77955e-12)
(5.67758e-06 -1.74682e-12 -8.82801e-13)
(5.67759e-06 -1.41837e-12 -3.25164e-13)
(5.67758e-06 -2.54214e-13 5.07323e-12)
(5.67759e-06 -2.19528e-12 -1.05226e-11)
(5.6776e-06 -1.35854e-12 1.14933e-11)
(5.67758e-06 1.58863e-12 2.74346e-11)
(8.05932e-06 -4.15047e-10 8.54087e-08)
(8.0159e-06 2.39487e-10 -3.11445e-08)
(8.05093e-06 7.74626e-11 4.78443e-09)
(8.0369e-06 -3.6719e-11 2.91044e-09)
(8.03934e-06 -5.84173e-11 -2.43625e-09)
(8.04249e-06 -9.92714e-12 9.81937e-12)
(8.04157e-06 6.82759e-12 3.49918e-10)
(8.0414e-06 1.19942e-12 -5.0285e-11)
(8.04163e-06 -7.05293e-13 -5.27453e-11)
(8.04166e-06 7.87206e-13 2.75525e-12)
(8.04165e-06 4.56703e-12 5.0271e-12)
(8.04168e-06 7.13311e-12 -1.37372e-12)
(8.04171e-06 8.42074e-12 -1.45149e-12)
(8.04173e-06 7.90596e-12 1.09661e-12)
(8.04174e-06 7.26611e-12 1.35992e-12)
(8.04174e-06 6.43627e-12 2.48258e-12)
(8.04174e-06 5.92652e-12 2.11327e-12)
(8.04174e-06 6.0959e-12 7.51169e-13)
(8.04175e-06 6.68801e-12 -2.00966e-12)
(8.04177e-06 7.40908e-12 -1.45747e-12)
(8.04179e-06 6.7605e-12 -1.38574e-12)
(8.04181e-06 6.2618e-12 -1.7084e-12)
(8.04184e-06 5.09462e-12 -3.33505e-12)
(8.04187e-06 4.32382e-12 -2.13561e-12)
(8.04188e-06 2.64137e-12 -8.869e-13)
(8.0419e-06 1.60235e-12 5.81563e-13)
(8.0419e-06 6.12207e-13 -8.20925e-13)
(8.04191e-06 9.24659e-13 -2.1596e-12)
(8.04193e-06 1.00066e-12 -3.07769e-12)
(8.04195e-06 6.46454e-13 -6.01254e-13)
(8.04196e-06 -2.20953e-13 7.03229e-13)
(8.04196e-06 -1.43877e-13 3.34419e-13)
(8.04196e-06 8.70405e-14 -1.33851e-12)
(8.04196e-06 4.03252e-13 -5.145e-14)
(8.04196e-06 -3.31076e-13 3.75509e-13)
(8.04196e-06 -2.76625e-13 -1.17904e-13)
(8.04196e-06 2.90009e-13 -2.11358e-12)
(8.04197e-06 1.14636e-12 -8.81216e-13)
(8.04198e-06 7.00346e-13 3.50118e-13)
(8.04198e-06 2.63664e-13 2.19455e-12)
(8.04197e-06 -6.79614e-13 9.1722e-13)
(8.04197e-06 -3.26311e-13 -3.19251e-13)
(8.04198e-06 -7.53133e-13 -2.69468e-12)
(8.04198e-06 -1.31041e-12 6.11007e-14)
(8.04198e-06 -2.48076e-12 1.1942e-12)
(8.04197e-06 -2.55707e-12 9.82584e-13)
(8.04196e-06 -1.99152e-12 -2.2373e-12)
(8.04196e-06 -1.1899e-12 -2.31634e-13)
(8.04195e-06 -1.60582e-12 7.4607e-13)
(8.04194e-06 -1.49436e-12 1.63395e-12)
(8.04194e-06 -8.01291e-13 -7.19877e-13)
(8.04193e-06 1.7103e-15 6.22614e-13)
(8.04193e-06 6.4518e-14 9.24554e-14)
(8.04192e-06 5.56535e-14 2.23474e-12)
(8.04191e-06 -1.07786e-12 2.06051e-12)
(8.0419e-06 -1.19821e-12 1.30267e-12)
(8.04189e-06 -4.49469e-13 -2.38514e-12)
(8.0419e-06 1.47277e-13 9.35719e-15)
(8.0419e-06 -6.31877e-13 1.46283e-13)
(8.0419e-06 -1.35853e-12 1.15071e-12)
(8.04189e-06 -2.59733e-12 -1.27793e-12)
(8.0419e-06 -2.81414e-12 -7.6917e-13)
(8.0419e-06 -2.87931e-12 -2.92124e-12)
(8.0419e-06 -2.25109e-12 -8.76826e-13)
(8.04191e-06 -2.17522e-12 -1.99745e-12)
(8.04191e-06 -1.72879e-12 -1.93672e-13)
(8.04191e-06 -1.7069e-12 -1.81385e-12)
(8.04192e-06 -1.22457e-12 -4.48739e-13)
(8.04192e-06 -1.06121e-12 -2.26871e-12)
(8.04193e-06 -3.53731e-13 -8.91259e-13)
(8.04194e-06 -3.31588e-14 -1.875e-12)
(8.04194e-06 3.87144e-13 9.85906e-13)
(8.04194e-06 3.10385e-13 9.89571e-13)
(8.04194e-06 1.09465e-12 3.58658e-13)
(8.04195e-06 2.24827e-12 -3.02432e-12)
(8.04196e-06 3.39884e-12 -1.37138e-12)
(8.04198e-06 2.84603e-12 -3.67282e-13)
(8.04198e-06 2.11605e-12 1.95653e-12)
(8.04198e-06 3.31777e-13 1.18657e-12)
(8.04198e-06 1.66178e-13 -8.46694e-13)
(8.04199e-06 8.02197e-13 -4.22326e-12)
(8.04201e-06 1.90263e-12 -1.94702e-12)
(8.04202e-06 1.3708e-12 3.62939e-14)
(8.04202e-06 5.67761e-13 2.51799e-12)
(8.04201e-06 -9.99282e-13 2.15618e-12)
(8.042e-06 -1.11755e-12 2.30335e-13)
(8.04201e-06 -5.62312e-13 -2.73505e-12)
(8.04201e-06 2.11589e-13 -7.38728e-13)
(8.04202e-06 -4.60583e-13 6.74988e-13)
(8.04201e-06 -1.00941e-12 1.94044e-12)
(8.042e-06 -2.3792e-12 8.18456e-13)
(8.04199e-06 -2.73866e-12 7.07227e-13)
(8.04198e-06 -3.00364e-12 -7.6933e-13)
(8.04198e-06 -2.53193e-12 3.98415e-13)
(8.04198e-06 -2.55382e-12 -2.41198e-12)
(8.04198e-06 -2.02438e-12 -8.26485e-13)
(8.04197e-06 -2.11361e-12 5.54237e-12)
(8.04198e-06 -1.35488e-12 -1.64501e-11)
(8.042e-06 -1.10434e-12 8.60707e-12)
(8.04198e-06 -5.02023e-13 3.10462e-11)
(5.69654e-06 -6.20416e-09 7.11813e-08)
(5.65883e-06 3.54496e-09 -2.32503e-08)
(5.68339e-06 -1.40672e-09 3.14444e-09)
(5.67383e-06 3.18221e-11 2.05931e-09)
(5.67575e-06 1.90601e-11 -1.9793e-09)
(5.67803e-06 -9.99482e-11 -2.42185e-11)
(5.67729e-06 -1.65165e-12 2.72289e-10)
(5.67717e-06 -6.31772e-12 -5.85755e-11)
(5.67735e-06 -1.02882e-11 -5.23132e-11)
(5.67737e-06 -7.38744e-12 -1.1077e-11)
(5.67736e-06 -2.60505e-12 3.88174e-13)
(5.67737e-06 -1.22964e-12 -6.60665e-12)
(5.6774e-06 1.23915e-13 -1.48029e-12)
(5.67741e-06 9.89003e-13 -1.98603e-12)
(5.67742e-06 1.37952e-12 9.29705e-13)
(5.67742e-06 1.46124e-12 7.77707e-14)
(5.67742e-06 9.00257e-13 6.138e-13)
(5.67742e-06 7.12888e-13 -1.42492e-12)
(5.67743e-06 6.305e-13 -3.09792e-12)
(5.67744e-06 9.33628e-13 -1.98317e-12)
(5.67745e-06 1.9411e-13 -2.96629e-12)
(5.67747e-06 -1.2818e-13 -2.6529e-12)
(5.67749e-06 -7.06048e-13 -4.83781e-12)
(5.67751e-06 -6.06621e-13 -2.61986e-12)
(5.67752e-06 -6.95289e-13 -2.24567e-12)
(5.67753e-06 -8.05926e-13 1.88585e-14)
(5.67753e-06 -1.72724e-12 -2.32164e-12)
(5.67754e-06 -1.61757e-12 -3.01068e-12)
(5.67756e-06 -1.88765e-12 -4.5966e-12)
(5.67757e-06 -1.14126e-12 -1.51646e-12)
(5.67757e-06 -7.29035e-13 -3.34672e-13)
(5.67757e-06 2.24651e-13 7.69632e-13)
(5.67758e-06 3.44549e-13 -7.76762e-13)
(5.67758e-06 4.05847e-13 5.86388e-13)
(5.67757e-06 -4.20856e-13 -1.66201e-13)
(5.67757e-06 -5.89171e-13 -9.30509e-13)
(5.67758e-06 -5.90478e-13 -2.41345e-12)
(5.67758e-06 2.46376e-14 -7.7247e-13)
(5.67759e-06 5.45372e-14 -2.59001e-13)
(5.67758e-06 2.4841e-13 2.04468e-12)
(5.67758e-06 -1.01426e-12 -5.15087e-13)
(5.67758e-06 -8.14646e-13 -1.3899e-12)
(5.67759e-06 -1.44227e-12 -3.47599e-12)
(5.67759e-06 -6.52043e-14 3.46678e-13)
(5.67759e-06 1.51554e-15 1.34112e-12)
(5.67758e-06 9.17209e-13 2.25354e-12)
(5.67758e-06 6.95697e-13 -5.56008e-13)
(5.67757e-06 1.00184e-12 1.39957e-12)
(5.67757e-06 3.35054e-14 1.4379e-12)
(5.67756e-06 1.24957e-13 8.98071e-13)
(5.67756e-06 -7.16594e-14 -6.26119e-13)
(5.67755e-06 1.02349e-12 9.7932e-13)
(5.67755e-06 9.02956e-13 5.29157e-13)
(5.67755e-06 1.52813e-12 3.54679e-12)
(5.67754e-06 5.4647e-14 1.88744e-12)
(5.67753e-06 2.46568e-14 3.45523e-13)
(5.67753e-06 -5.40755e-13 -2.66176e-12)
(5.67753e-06 7.46048e-13 7.01899e-13)
(5.67753e-06 1.74631e-13 -2.02697e-13)
(5.67753e-06 8.20519e-13 2.21176e-12)
(5.67753e-06 -9.09754e-13 -1.18107e-12)
(5.67753e-06 -7.2927e-13 -5.60739e-13)
(5.67753e-06 -1.8404e-12 -2.59933e-12)
(5.67753e-06 -1.16886e-12 -9.94671e-13)
(5.67754e-06 -1.77718e-12 -1.83422e-12)
(5.67754e-06 -1.06971e-12 -7.18817e-13)
(5.67754e-06 -1.66616e-12 -1.83155e-12)
(5.67754e-06 -1.05181e-12 -1.14964e-12)
(5.67755e-06 -1.54526e-12 -2.35111e-12)
(5.67755e-06 -9.46198e-13 -1.49439e-12)
(5.67756e-06 -1.12449e-12 -1.81569e-12)
(5.67756e-06 -4.63983e-13 5.58257e-13)
(5.67756e-06 -1.28015e-12 -2.99959e-13)
(5.67756e-06 -8.24234e-13 -1.35827e-12)
(5.67756e-06 -8.66637e-13 -4.10812e-12)
(5.67758e-06 4.77595e-13 -1.00562e-12)
(5.67758e-06 5.03642e-13 -9.26327e-13)
(5.67759e-06 1.02748e-12 2.73887e-12)
(5.67758e-06 -6.4921e-13 -2.38415e-13)
(5.67758e-06 -7.09719e-13 -1.62464e-12)
(5.67759e-06 -1.12696e-12 -4.86327e-12)
(5.67761e-06 1.10194e-13 -1.14051e-12)
(5.67762e-06 3.33737e-13 -1.47148e-13)
(5.67762e-06 1.02912e-12 3.56905e-12)
(5.67761e-06 -2.63905e-13 1.20716e-12)
(5.6776e-06 -3.24119e-13 -1.63855e-13)
(5.67761e-06 -6.28607e-13 -3.07864e-12)
(5.67761e-06 4.53691e-13 2.79528e-13)
(5.67761e-06 4.73007e-13 5.70054e-13)
(5.67761e-06 1.06752e-12 3.24751e-12)
(5.6776e-06 4.10888e-14 9.65876e-13)
(5.6776e-06 1.14047e-14 1.37723e-12)
(5.67759e-06 -7.96702e-13 -6.68066e-13)
(5.67759e-06 -5.78153e-13 6.34688e-13)
(5.67758e-06 -1.2628e-12 -2.23296e-12)
(5.67759e-06 -7.24635e-13 -1.18774e-12)
(5.67758e-06 -1.64587e-12 3.98695e-12)
(5.67759e-06 6.15574e-13 -1.04042e-11)
(5.6776e-06 -1.44846e-13 1.03709e-11)
(5.67758e-06 -1.39814e-12 2.70324e-11)
(7.08491e-06 6.77407e-08 6.77793e-08)
(7.02875e-06 -2.38135e-08 -2.37484e-08)
(7.06742e-06 1.91524e-09 2.04208e-09)
(7.05252e-06 1.82288e-09 1.89606e-09)
(7.05534e-06 -1.74186e-09 -1.63259e-09)
(7.05833e-06 -1.31183e-10 -1.15998e-10)
(7.05721e-06 1.75822e-10 1.93641e-10)
(7.05708e-06 -3.27682e-11 -4.50892e-11)
(7.05737e-06 -3.40602e-11 -2.10403e-11)
(7.05739e-06 -8.50643e-12 1.87161e-12)
(7.05736e-06 -6.57219e-12 1.72101e-11)
(7.05739e-06 -1.08056e-11 5.98416e-12)
(7.05742e-06 -6.13539e-12 1.03039e-11)
(7.05744e-06 -2.78146e-12 3.91615e-12)
(7.05745e-06 6.55261e-13 5.16124e-12)
(7.05745e-06 2.02185e-12 1.10667e-12)
(7.05745e-06 3.76601e-12 8.25077e-13)
(7.05745e-06 2.62182e-12 -1.21314e-13)
(7.05746e-06 7.5234e-13 -1.85587e-12)
(7.05748e-06 1.05388e-12 2.37827e-12)
(7.05749e-06 7.98154e-13 -7.99411e-14)
(7.05751e-06 9.71342e-13 2.66086e-12)
(7.05754e-06 -3.62226e-13 -1.20154e-12)
(7.05756e-06 -3.20701e-13 3.38519e-12)
(7.05758e-06 -9.05053e-13 2.23326e-12)
(7.05759e-06 -2.25712e-13 4.61392e-12)
(7.05759e-06 -1.24564e-13 2.20479e-13)
(7.0576e-06 -1.48399e-12 4.90141e-13)
(7.05762e-06 -1.20455e-12 -5.10378e-13)
(7.05764e-06 -1.31014e-12 3.67636e-12)
(7.05765e-06 -1.40956e-12 3.43562e-12)
(7.05765e-06 -2.06392e-12 3.42107e-12)
(7.05765e-06 -2.67227e-12 -6.65742e-13)
(7.05765e-06 -4.87603e-13 2.81885e-13)
(7.05765e-06 9.64743e-13 -1.51283e-12)
(7.05764e-06 3.65701e-13 -5.91218e-13)
(7.05765e-06 -1.7926e-12 -1.45209e-12)
(7.05766e-06 -2.06718e-12 2.60201e-12)
(7.05766e-06 -2.17808e-12 2.03422e-12)
(7.05766e-06 -5.59269e-13 4.0682e-12)
(7.05765e-06 6.16419e-13 -1.13423e-12)
(7.05765e-06 -1.20092e-12 -8.78682e-13)
(7.05766e-06 -6.94347e-13 -2.64351e-12)
(7.05767e-06 -1.63489e-12 3.89079e-12)
(7.05767e-06 -2.02733e-12 3.51319e-12)
(7.05765e-06 -3.59132e-12 4.84299e-12)
(7.05764e-06 -5.51715e-12 -1.59744e-12)
(7.05764e-06 -2.41896e-12 4.7658e-13)
(7.05764e-06 6.77007e-13 -2.32812e-12)
(7.05763e-06 1.29776e-12 -7.99389e-13)
(7.05762e-06 -8.84314e-13 -2.82572e-12)
(7.05762e-06 -8.42309e-13 2.33022e-12)
(7.05762e-06 -1.64495e-12 -1.03605e-12)
(7.05761e-06 1.50845e-12 2.40179e-12)
(7.0576e-06 3.11098e-12 -3.27494e-12)
(7.05759e-06 2.03545e-12 -2.1506e-13)
(7.05759e-06 -2.23114e-12 -4.47009e-12)
(7.05759e-06 -1.79551e-12 4.66162e-12)
(7.05759e-06 -3.37634e-12 4.82477e-13)
(7.05759e-06 -1.79311e-12 5.51977e-12)
(7.05758e-06 -1.75098e-12 -2.4795e-12)
(7.05759e-06 -1.41062e-12 1.38213e-12)
(7.05759e-06 -1.62164e-12 -3.55592e-12)
(7.05759e-06 -9.22127e-13 7.44399e-13)
(7.0576e-06 -5.59409e-13 -2.60928e-12)
(7.0576e-06 -1.79916e-13 7.93506e-13)
(7.0576e-06 -1.00008e-13 -2.62832e-12)
(7.05761e-06 -8.22559e-14 5.28442e-13)
(7.05761e-06 2.91671e-14 -2.97027e-12)
(7.05762e-06 4.14058e-13 -1.70111e-13)
(7.05762e-06 1.42975e-12 -3.43472e-12)
(7.05763e-06 3.48227e-12 -4.81209e-13)
(7.05762e-06 4.51194e-12 -3.49159e-12)
(7.05762e-06 2.90078e-12 -6.21495e-13)
(7.05763e-06 -7.66114e-13 -4.31917e-12)
(7.05765e-06 -3.38254e-13 3.38906e-12)
(7.05766e-06 -5.15695e-13 -1.01669e-13)
(7.05766e-06 2.54358e-12 3.97461e-12)
(7.05766e-06 3.05608e-12 -2.79025e-12)
(7.05766e-06 1.28094e-12 1.25886e-13)
(7.05767e-06 -2.4121e-12 -4.05338e-12)
(7.05769e-06 -1.59005e-12 3.26609e-12)
(7.0577e-06 -1.13523e-12 6.8386e-13)
(7.0577e-06 2.35189e-12 3.62339e-12)
(7.05769e-06 2.92232e-12 -2.14196e-12)
(7.05768e-06 1.31975e-12 -1.29542e-13)
(7.05769e-06 -2.25063e-12 -3.7696e-12)
(7.0577e-06 -1.51398e-12 3.16482e-12)
(7.0577e-06 -1.86402e-12 6.41933e-13)
(7.05769e-06 2.85403e-13 3.3607e-12)
(7.05768e-06 7.5771e-13 -2.51868e-12)
(7.05767e-06 1.12788e-12 -3.69738e-13)
(7.05767e-06 6.82411e-13 -4.07493e-12)
(7.05766e-06 8.23985e-13 -2.18168e-13)
(7.05766e-06 -9.19181e-13 -4.0688e-12)
(7.05766e-06 -8.88143e-13 -1.91065e-13)
(7.05766e-06 4.29644e-12 2.39386e-12)
(7.05767e-06 -1.19174e-11 -1.03209e-11)
(7.05768e-06 9.49444e-12 8.61054e-12)
(7.05765e-06 2.49146e-11 2.62479e-11)
(1.6318e-05 3.04485e-09 3.75233e-08)
(1.63132e-05 4.71718e-09 -4.96988e-09)
(1.6331e-05 3.96942e-10 -4.77029e-10)
(1.63196e-05 -6.79582e-10 -8.00975e-10)
(1.63202e-05 -9.10884e-10 -2.36199e-09)
(1.63232e-05 1.36158e-11 -2.43298e-10)
(1.63217e-05 1.80469e-11 6.7535e-11)
(1.63215e-05 -7.1048e-11 -1.24856e-10)
(1.63218e-05 -1.27106e-11 -2.25066e-11)
(1.63218e-05 1.40139e-11 3.92873e-11)
(1.63218e-05 9.23819e-12 3.96376e-11)
(1.63218e-05 8.62262e-12 3.05387e-11)
(1.63219e-05 1.41953e-11 3.1018e-11)
(1.63219e-05 1.60375e-11 2.50321e-11)
(1.63219e-05 1.73697e-11 2.1469e-11)
(1.63219e-05 1.74036e-11 1.62829e-11)
(1.63219e-05 1.82545e-11 1.47281e-11)
(1.6322e-05 1.86287e-11 1.32981e-11)
(1.6322e-05 1.94551e-11 1.49178e-11)
(1.6322e-05 1.97878e-11 1.6255e-11)
(1.63221e-05 1.89207e-11 1.62044e-11)
(1.63221e-05 1.76782e-11 1.54925e-11)
(1.63221e-05 1.48389e-11 1.36266e-11)
(1.63222e-05 1.20189e-11 1.358e-11)
(1.63222e-05 8.08587e-12 1.19348e-11)
(1.63223e-05 5.44032e-12 1.06257e-11)
(1.63223e-05 4.03595e-12 7.35458e-12)
(1.63223e-05 3.92448e-12 6.81827e-12)
(1.63223e-05 2.71539e-12 5.7466e-12)
(1.63224e-05 1.44646e-12 7.3093e-12)
(1.63224e-05 -9.58527e-13 5.89317e-12)
(1.63224e-05 -2.15993e-12 3.79689e-12)
(1.63224e-05 -1.38816e-12 6.57248e-13)
(1.63224e-05 3.69622e-13 5.70871e-13)
(1.63224e-05 1.42005e-12 -4.88595e-14)
(1.63224e-05 1.22465e-12 6.62755e-13)
(1.63224e-05 8.87573e-13 2.05276e-12)
(1.63224e-05 4.57015e-13 4.68246e-12)
(1.63224e-05 -9.67664e-14 5.51732e-12)
(1.63224e-05 -6.04627e-13 4.95864e-12)
(1.63224e-05 -4.90763e-14 2.2329e-12)
(1.63224e-05 2.72893e-13 1.20994e-12)
(1.63224e-05 -1.19628e-12 4.01531e-13)
(1.63224e-05 -4.91177e-12 1.76928e-12)
(1.63224e-05 -8.40533e-12 5.62264e-13)
(1.63224e-05 -1.04936e-11 -1.58257e-12)
(1.63224e-05 -8.67745e-12 -3.88554e-12)
(1.63224e-05 -6.39189e-12 -4.67185e-12)
(1.63224e-05 -3.72754e-12 -4.66304e-12)
(1.63224e-05 -2.815e-12 -4.55832e-12)
(1.63223e-05 -1.22121e-12 -2.00253e-12)
(1.63223e-05 -2.01865e-12 -2.77907e-13)
(1.63223e-05 -1.104e-12 1.31296e-13)
(1.63223e-05 -1.48263e-12 -1.74533e-12)
(1.63223e-05 -5.01838e-13 -2.98614e-12)
(1.63223e-05 -1.18295e-12 -3.28567e-12)
(1.63223e-05 -2.48297e-13 -4.12348e-13)
(1.63223e-05 -2.68931e-12 2.78611e-12)
(1.63223e-05 -3.82417e-12 3.3724e-12)
(1.63223e-05 -6.7467e-12 1.21291e-12)
(1.63223e-05 -6.63641e-12 -2.0007e-12)
(1.63223e-05 -7.4563e-12 -3.91627e-12)
(1.63223e-05 -5.37227e-12 -3.76464e-12)
(1.63223e-05 -5.2909e-12 -3.59937e-12)
(1.63223e-05 -3.32534e-12 -2.41359e-12)
(1.63223e-05 -3.43002e-12 -2.49428e-12)
(1.63223e-05 -1.52225e-12 -1.36676e-12)
(1.63223e-05 -1.52546e-12 -1.5055e-12)
(1.63223e-05 5.78057e-13 -7.0115e-13)
(1.63223e-05 1.19703e-12 -1.02771e-12)
(1.63223e-05 3.65377e-12 -5.12689e-13)
(1.63223e-05 4.69358e-12 -5.6529e-13)
(1.63223e-05 7.03091e-12 9.72409e-13)
(1.63223e-05 7.35794e-12 2.34944e-12)
(1.63224e-05 8.96799e-12 5.79325e-12)
(1.63224e-05 8.37494e-12 8.50716e-12)
(1.63224e-05 7.66765e-12 8.29951e-12)
(1.63224e-05 5.93814e-12 5.92583e-12)
(1.63224e-05 5.23959e-12 2.68846e-12)
(1.63224e-05 3.90747e-12 2.23949e-12)
(1.63224e-05 3.88288e-12 3.10453e-12)
(1.63225e-05 3.41268e-12 5.81021e-12)
(1.63225e-05 2.87159e-12 5.14805e-12)
(1.63225e-05 1.62492e-12 2.98432e-12)
(1.63225e-05 6.75054e-13 -6.9561e-13)
(1.63225e-05 -7.29538e-13 -1.96488e-12)
(1.63225e-05 -9.32951e-13 -1.33269e-12)
(1.63225e-05 -2.09488e-12 1.57655e-12)
(1.63225e-05 -2.8257e-12 1.27031e-12)
(1.63225e-05 -4.52638e-12 -1.20616e-12)
(1.63225e-05 -5.33073e-12 -5.16454e-12)
(1.63224e-05 -5.78254e-12 -7.08853e-12)
(1.63224e-05 -5.32596e-12 -7.50757e-12)
(1.63224e-05 -4.9784e-12 -6.19007e-12)
(1.63224e-05 -4.17985e-12 -5.6165e-12)
(1.63224e-05 -4.70214e-12 -4.41808e-12)
(1.63224e-05 -3.20472e-12 -1.32154e-12)
(1.63224e-05 -1.15325e-12 -5.41004e-12)
(1.63224e-05 -8.3131e-12 -5.81419e-12)
(1.63224e-05 -3.67248e-12 7.08427e-12)
(1.91467e-05 1.68395e-09 4.7475e-08)
(1.91355e-05 -2.25753e-10 -7.78204e-09)
(1.91652e-05 8.91258e-11 1.74083e-09)
(1.91502e-05 4.67801e-11 -3.56301e-10)
(1.91506e-05 -1.17401e-10 -3.08101e-09)
(1.91548e-05 -3.91765e-11 -3.19171e-10)
(1.91528e-05 -3.44322e-12 1.24481e-10)
(1.91525e-05 -1.23766e-11 -1.63275e-10)
(1.91529e-05 -1.09744e-11 -4.44746e-11)
(1.91529e-05 -6.26914e-12 3.95851e-11)
(1.91528e-05 2.04077e-12 4.33313e-11)
(1.91529e-05 8.29464e-12 3.46585e-11)
(1.9153e-05 1.33265e-11 3.41292e-11)
(1.9153e-05 1.49694e-11 2.96856e-11)
(1.9153e-05 1.55182e-11 2.44226e-11)
(1.9153e-05 1.54399e-11 1.98262e-11)
(1.9153e-05 1.50859e-11 1.68882e-11)
(1.91531e-05 1.5701e-11 1.65872e-11)
(1.91531e-05 1.67222e-11 1.66656e-11)
(1.91531e-05 1.80179e-11 1.9189e-11)
(1.91532e-05 1.68797e-11 1.83471e-11)
(1.91532e-05 1.57593e-11 1.7808e-11)
(1.91533e-05 1.31207e-11 1.50468e-11)
(1.91533e-05 1.03972e-11 1.49711e-11)
(1.91534e-05 6.58923e-12 1.34028e-11)
(1.91534e-05 3.49446e-12 1.22451e-11)
(1.91534e-05 1.61372e-12 9.11546e-12)
(1.91535e-05 1.58568e-12 7.36693e-12)
(1.91535e-05 1.30337e-12 6.62182e-12)
(1.91535e-05 3.27113e-13 7.32492e-12)
(1.91536e-05 -9.23808e-13 6.31053e-12)
(1.91536e-05 -7.9658e-13 4.08938e-12)
(1.91536e-05 3.1482e-13 1.12421e-12)
(1.91536e-05 9.18567e-13 9.47161e-13)
(1.91536e-05 6.65243e-14 1.80836e-13)
(1.91536e-05 -1.55256e-13 9.67656e-13)
(1.91536e-05 4.40261e-13 2.04842e-12)
(1.91536e-05 1.27959e-12 5.35849e-12)
(1.91536e-05 3.64244e-13 5.82798e-12)
(1.91536e-05 -7.58832e-13 5.87609e-12)
(1.91536e-05 -1.88826e-12 2.49662e-12)
(1.91536e-05 -1.94681e-12 1.27573e-12)
(1.91536e-05 -2.80375e-12 -9.65094e-14)
(1.91536e-05 -4.20671e-12 1.4951e-12)
(1.91536e-05 -6.45596e-12 -4.81059e-13)
(1.91536e-05 -6.09008e-12 -1.16142e-12)
(1.91536e-05 -5.01013e-12 -5.59998e-12)
(1.91536e-05 -2.93429e-12 -4.3097e-12)
(1.91535e-05 -3.44419e-12 -6.25885e-12)
(1.91535e-05 -2.54498e-12 -3.84374e-12)
(1.91535e-05 -2.25383e-12 -3.70174e-12)
(1.91535e-05 -1.46124e-13 1.01308e-12)
(1.91535e-05 -4.55089e-13 -1.5194e-12)
(1.91535e-05 3.44211e-13 2.62548e-13)
(1.91534e-05 -1.75796e-12 -4.14876e-12)
(1.91534e-05 -1.14248e-12 -1.36952e-12)
(1.91534e-05 -2.1365e-12 -2.11378e-12)
(1.91534e-05 -4.31193e-13 4.87982e-12)
(1.91534e-05 -2.88957e-12 1.99749e-12)
(1.91534e-05 -3.09471e-12 3.75963e-12)
(1.91534e-05 -5.99229e-12 -3.35606e-12)
(1.91534e-05 -5.66931e-12 -1.9862e-12)
(1.91534e-05 -6.79552e-12 -5.44415e-12)
(1.91534e-05 -5.23849e-12 -1.89986e-12)
(1.91534e-05 -5.67263e-12 -3.9244e-12)
(1.91534e-05 -4.07193e-12 -4.84537e-13)
(1.91535e-05 -4.35444e-12 -2.84472e-12)
(1.91535e-05 -2.53615e-12 3.35604e-13)
(1.91535e-05 -2.12221e-12 -2.19724e-12)
(1.91535e-05 -1.69685e-13 7.23592e-13)
(1.91535e-05 6.00697e-13 -1.53073e-12)
(1.91535e-05 2.06505e-12 1.86522e-12)
(1.91535e-05 2.04457e-12 1.01531e-12)
(1.91535e-05 4.08402e-12 4.68765e-12)
(1.91535e-05 5.77381e-12 5.29425e-12)
(1.91536e-05 8.29189e-12 1.03035e-11)
(1.91536e-05 7.25736e-12 8.21526e-12)
(1.91536e-05 6.17507e-12 8.37003e-12)
(1.91536e-05 3.01467e-12 3.28375e-12)
(1.91536e-05 2.67462e-12 3.86515e-12)
(1.91536e-05 3.00568e-12 3.06865e-12)
(1.91537e-05 4.48158e-12 6.99731e-12)
(1.91537e-05 3.49193e-12 5.47413e-12)
(1.91537e-05 2.04994e-12 4.18941e-12)
(1.91537e-05 -8.29567e-13 -6.20015e-13)
(1.91537e-05 -1.25954e-12 -9.47577e-13)
(1.91537e-05 -1.14336e-12 -1.61855e-12)
(1.91537e-05 4.03101e-14 2.4292e-12)
(1.91537e-05 -1.24059e-12 7.34746e-13)
(1.91537e-05 -2.24288e-12 -2.17672e-15)
(1.91537e-05 -4.78417e-12 -5.78612e-12)
(1.91536e-05 -5.41242e-12 -6.38388e-12)
(1.91536e-05 -6.3978e-12 -8.66577e-12)
(1.91536e-05 -5.5344e-12 -5.37025e-12)
(1.91536e-05 -5.70979e-12 -6.91535e-12)
(1.91536e-05 -4.95063e-12 -4.43888e-12)
(1.91536e-05 -4.15013e-12 -4.15393e-13)
(1.91536e-05 -3.76234e-12 -4.63807e-12)
(1.91536e-05 -2.69879e-12 -5.09413e-12)
(1.91536e-05 -5.24486e-13 7.63782e-12)
(1.63185e-05 -1.84781e-09 3.71836e-08)
(1.63127e-05 -4.20954e-09 -5.62186e-09)
(1.63313e-05 -1.33762e-10 -2.12643e-10)
(1.63196e-05 6.61e-10 -7.47381e-10)
(1.63202e-05 7.03645e-10 -2.41041e-09)
(1.63233e-05 -1.19211e-10 -2.436e-10)
(1.63217e-05 -4.88574e-11 8.29386e-11)
(1.63215e-05 5.12861e-11 -1.51001e-10)
(1.63218e-05 -3.9783e-12 -3.6349e-11)
(1.63218e-05 -2.93243e-11 2.34417e-11)
(1.63218e-05 -1.16449e-11 3.10262e-11)
(1.63218e-05 -5.28869e-13 1.95287e-11)
(1.63219e-05 2.93131e-12 2.48467e-11)
(1.63219e-05 4.0003e-12 1.9593e-11)
(1.63219e-05 4.47075e-12 1.8626e-11)
(1.63219e-05 4.60767e-12 1.34448e-11)
(1.6322e-05 3.71959e-12 1.21798e-11)
(1.6322e-05 4.13046e-12 1.14098e-11)
(1.6322e-05 5.11724e-12 1.08235e-11)
(1.6322e-05 6.45045e-12 1.38108e-11)
(1.63221e-05 5.62362e-12 1.14779e-11)
(1.63221e-05 5.51788e-12 1.26654e-11)
(1.63221e-05 4.553e-12 8.56004e-12)
(1.63222e-05 3.71019e-12 1.09303e-11)
(1.63222e-05 1.61886e-12 8.54746e-12)
(1.63223e-05 -3.22039e-13 8.91614e-12)
(1.63223e-05 -2.65733e-12 4.86577e-12)
(1.63223e-05 -2.01955e-12 4.62847e-12)
(1.63223e-05 -1.45966e-12 2.66366e-12)
(1.63224e-05 -8.1207e-13 5.07006e-12)
(1.63224e-05 -7.95695e-13 4.165e-12)
(1.63224e-05 6.03806e-13 3.91793e-12)
(1.63224e-05 1.16935e-12 1.11711e-12)
(1.63224e-05 9.7294e-13 1.51074e-12)
(1.63224e-05 -1.28316e-12 1.4937e-13)
(1.63224e-05 -1.25518e-12 8.35785e-13)
(1.63224e-05 -3.16735e-13 8.5857e-13)
(1.63224e-05 9.88042e-13 4.01885e-12)
(1.63224e-05 8.2786e-14 3.76996e-12)
(1.63224e-05 -1.02136e-12 4.86064e-12)
(1.63224e-05 -3.79401e-12 4.40066e-13)
(1.63224e-05 -2.7319e-12 1.13551e-12)
(1.63224e-05 -3.06275e-12 -2.22595e-12)
(1.63224e-05 -9.2842e-13 1.82696e-12)
(1.63224e-05 -1.52847e-12 -3.81175e-13)
(1.63224e-05 7.13286e-13 1.2772e-12)
(1.63224e-05 9.94041e-13 -3.19623e-12)
(1.63224e-05 1.6639e-12 -1.39633e-12)
(1.63224e-05 -1.05726e-12 -4.04455e-12)
(1.63224e-05 -1.36446e-12 -1.84421e-12)
(1.63223e-05 -1.51089e-12 -2.84882e-12)
(1.63223e-05 1.59277e-12 1.84992e-12)
(1.63223e-05 1.34175e-12 -1.24948e-12)
(1.63223e-05 2.07384e-12 2.01596e-12)
(1.63223e-05 -1.55598e-12 -3.67331e-12)
(1.63223e-05 -1.19573e-12 3.76109e-13)
(1.63223e-05 -1.71194e-12 -2.79204e-12)
(1.63223e-05 1.71382e-12 5.23899e-12)
(1.63223e-05 2.24133e-13 5.35858e-13)
(1.63223e-05 1.74652e-12 5.06265e-12)
(1.63223e-05 -2.38359e-12 -3.26353e-12)
(1.63223e-05 -1.59145e-12 6.08435e-13)
(1.63223e-05 -4.54203e-12 -4.86029e-12)
(1.63223e-05 -2.93898e-12 -1.0348e-13)
(1.63223e-05 -4.98362e-12 -3.86589e-12)
(1.63223e-05 -3.18125e-12 5.49983e-13)
(1.63223e-05 -4.86636e-12 -3.1007e-12)
(1.63223e-05 -2.67604e-12 1.02932e-12)
(1.63223e-05 -3.62704e-12 -2.72224e-12)
(1.63223e-05 -1.51715e-12 1.02599e-12)
(1.63223e-05 -2.46133e-12 -2.1032e-12)
(1.63223e-05 -1.35636e-12 1.53992e-12)
(1.63223e-05 -3.64252e-12 -7.10234e-13)
(1.63223e-05 -1.25926e-12 3.56463e-12)
(1.63224e-05 5.5712e-13 1.53147e-12)
(1.63224e-05 4.33968e-12 8.05421e-12)
(1.63224e-05 3.98387e-12 4.61342e-12)
(1.63224e-05 3.86825e-12 7.64657e-12)
(1.63224e-05 -4.78639e-13 9.66775e-13)
(1.63224e-05 2.65539e-13 3.90169e-12)
(1.63224e-05 1.13872e-12 7.52552e-14)
(1.63225e-05 3.48143e-12 5.84004e-12)
(1.63225e-05 2.9363e-12 3.05466e-12)
(1.63225e-05 2.03196e-12 4.75786e-12)
(1.63225e-05 -1.80772e-12 -1.05614e-12)
(1.63225e-05 -1.17557e-12 6.02539e-13)
(1.63225e-05 -3.41023e-13 -2.51954e-12)
(1.63225e-05 2.31796e-12 2.77475e-12)
(1.63225e-05 1.28974e-12 1.21829e-13)
(1.63225e-05 1.33623e-12 1.9565e-12)
(1.63225e-05 -1.57426e-12 -4.26103e-12)
(1.63224e-05 -1.84512e-12 -2.81768e-12)
(1.63224e-05 -3.61441e-12 -6.6688e-12)
(1.63224e-05 -2.86332e-12 -2.66739e-12)
(1.63224e-05 -4.21636e-12 -5.81587e-12)
(1.63224e-05 -1.99622e-12 -2.72388e-12)
(1.63224e-05 -3.05135e-12 -1.9758e-12)
(1.63224e-05 -3.46329e-12 -3.92495e-12)
(1.63224e-05 4.53587e-12 -7.19851e-12)
(1.63224e-05 2.30598e-12 7.86076e-12)
(7.0832e-06 -6.56276e-08 6.65631e-08)
(7.02927e-06 2.39216e-08 -2.35601e-08)
(7.06772e-06 -2.10162e-09 2.619e-09)
(7.05235e-06 -1.87051e-09 1.71108e-09)
(7.05544e-06 1.71722e-09 -1.82621e-09)
(7.05851e-06 1.0768e-10 -9.79381e-11)
(7.05722e-06 -2.0438e-10 2.46495e-10)
(7.05705e-06 1.77218e-11 -6.37614e-11)
(7.05738e-06 2.98096e-11 -4.43154e-11)
(7.0574e-06 3.85865e-12 -2.27129e-11)
(7.05737e-06 -1.57493e-13 4.91937e-12)
(7.0574e-06 6.58648e-12 -8.21603e-12)
(7.05743e-06 4.71657e-12 2.02322e-12)
(7.05744e-06 4.14575e-12 -2.42765e-12)
(7.05745e-06 1.93465e-12 3.17301e-12)
(7.05745e-06 1.23119e-12 1.02869e-12)
(7.05745e-06 -1.7966e-13 4.44579e-13)
(7.05745e-06 1.87719e-12 9.09934e-14)
(7.05746e-06 3.60192e-12 -3.64292e-12)
(7.05748e-06 4.12028e-12 1.57412e-12)
(7.0575e-06 4.05525e-12 -3.89092e-12)
(7.05751e-06 4.36494e-12 3.78601e-13)
(7.05754e-06 5.42635e-12 -5.79657e-12)
(7.05756e-06 4.32457e-12 7.18318e-13)
(7.05758e-06 3.08159e-12 -2.21386e-12)
(7.05759e-06 4.71177e-13 1.94468e-12)
(7.05759e-06 8.26272e-13 -4.45053e-12)
(7.0576e-06 1.4454e-12 -2.26663e-12)
(7.05762e-06 3.31738e-12 -5.71754e-12)
(7.05764e-06 1.59289e-12 3.29018e-13)
(7.05765e-06 9.78174e-13 -4.4191e-13)
(7.05765e-06 7.33081e-13 2.70108e-12)
(7.05765e-06 1.82234e-12 -9.07794e-13)
(7.05765e-06 1.7112e-14 1.97674e-12)
(7.05764e-06 -8.92438e-13 -1.74984e-12)
(7.05764e-06 -3.1868e-13 -3.55689e-13)
(7.05765e-06 1.83966e-12 -3.31065e-12)
(7.05766e-06 2.0431e-12 1.55429e-12)
(7.05766e-06 1.26427e-12 -8.33428e-13)
(7.05766e-06 -1.41869e-12 3.51146e-12)
(7.05765e-06 -1.30395e-12 -4.21421e-12)
(7.05765e-06 -4.72574e-13 -5.65858e-13)
(7.05766e-06 1.84254e-12 -6.29033e-12)
(7.05767e-06 2.39969e-13 3.60349e-12)
(7.05767e-06 -2.26528e-13 2.6626e-13)
(7.05765e-06 4.44742e-13 6.23676e-12)
(7.05765e-06 2.2694e-12 -1.58055e-12)
(7.05764e-06 4.5982e-13 4.35584e-12)
(7.05764e-06 -2.18197e-12 -1.65765e-12)
(7.05763e-06 -1.69284e-12 2.12298e-12)
(7.05763e-06 -2.2037e-13 -3.55253e-12)