/*--------------------------------*- C++ -*----------------------------------*\
| =========                 |                                                 |
| \\      /  F ield         | OpenFOAM: The Open Source CFD Toolbox           |
|  \\    /   O peration     | Version:  2412                                  |
|   \\  /    A nd           | Website:  www.openfoam.com                      |
|    \\/     M anipulation  |                                                 |
\*---------------------------------------------------------------------------*/
FoamFile
{
    version     2.0;
    format      ascii;
    arch        "LSB;label=32;scalar=64";
    class       surfaceScalarField;
    location    "4e-05";
    object      phi;
}
// * * * * * * * * * * * * * * * * * * * * * * * * * * * * * * * * * * * * * //

dimensions      [0 3 -1 0 0 0 0];

oriented        oriented;

internalField   nonuniform List<scalar> 
284064
(
2.52531e-20
5.17732e-23
5.16166e-23
2.54638e-20
-1.05647e-22
-1.05643e-22
2.52955e-20
8.39153e-23
8.39294e-23
2.54735e-20
-8.93169e-23
-8.92988e-23
2.529e-20
9.14566e-23
9.1478e-23
2.5474e-20
-9.22575e-23
-9.22261e-23
2.52845e-20
9.43997e-23
9.44223e-23
2.54797e-20
-9.77266e-23
-9.76969e-23
2.52729e-20
1.03081e-22
1.03102e-22
2.54956e-20
-1.11427e-22
-1.11401e-22
2.52459e-20
1.24618e-22
1.24626e-22
2.55326e-20
-1.43261e-22
-1.43251e-22
2.51991e-20
1.66691e-22
1.6669e-22
2.55831e-20
-1.91817e-22
-1.9181e-22
2.51544e-20
2.14444e-22
2.14443e-22
2.56071e-20
-2.26038e-22
-2.26038e-22
2.5161e-20
2.23247e-22
2.23239e-22
2.55662e-20
-2.02201e-22
-2.0221e-22
2.52286e-20
1.69094e-22
1.69085e-22
2.54844e-20
-1.27557e-22
-1.27567e-22
2.53086e-20
8.8188e-23
8.81802e-23
2.54171e-20
-5.40066e-23
-5.40168e-23
2.53572e-20
3.02314e-23
3.02278e-23
2.53863e-20
-1.43756e-23
-1.43836e-23
2.53743e-20
6.21247e-24
6.21037e-24
2.5378e-20
-1.77173e-24
-1.77676e-24
2.53778e-20
2.72626e-25
2.7152e-25
2.53768e-20
5.12513e-25
5.05676e-25
2.5378e-20
-4.54824e-25
-4.55585e-25
2.5377e-20
5.32958e-25
5.26997e-25
2.53776e-20
-2.37254e-25
-2.36468e-25
2.53773e-20
1.41001e-25
1.39101e-25
2.53771e-20
1.67277e-25
1.67886e-25
2.53778e-20
-3.49545e-25
-3.50987e-25
2.53767e-20
5.75126e-25
5.78469e-25
2.53781e-20
-7.72067e-25
-7.73293e-25
2.53764e-20
8.94963e-25
8.95569e-25
2.53784e-20
-1.07303e-24
-1.07509e-24
2.53762e-20
1.08835e-24
1.08936e-24
2.53787e-20
-1.32877e-24
-1.3284e-24
2.53762e-20
1.20385e-24
1.21025e-24
2.53791e-20
-1.60541e-24
-1.60425e-24
2.53762e-20
1.36151e-24
1.36874e-24
2.53797e-20
-1.97548e-24
-1.97429e-24
2.53761e-20
1.65743e-24
1.65892e-24
2.53803e-20
-2.33376e-24
-2.33414e-24
2.53749e-20
2.4881e-24
2.48992e-24
2.53771e-20
-1.33113e-24
-1.33832e-24
2.53616e-20
7.50529e-24
7.50286e-24
1.13539e-23
1.12008e-23
5.7019e-20
-2.16474e-23
1.39399e-22
5.73001e-20
-1.41503e-22
-2.46893e-22
5.71299e-20
6.68648e-23
1.85886e-22
5.73223e-20
-8.62496e-23
-1.9723e-22
5.71237e-20
8.59084e-23
2.02329e-22
5.73187e-20
-8.33964e-23
-2.05203e-22
5.71182e-20
8.11536e-23
2.1198e-22
5.73212e-20
-8.05521e-23
-2.21051e-22
5.71073e-20
7.98256e-23
2.35501e-22
5.73337e-20
-8.16555e-23
-2.56558e-22
5.70797e-20
9.09397e-23
2.86422e-22
5.73734e-20
-1.10812e-22
-3.25665e-22
5.70249e-20
1.33579e-22
3.81119e-22
5.7436e-20
-1.6049e-22
-4.41169e-22
5.6965e-20
2.04445e-22
4.81382e-22
5.74735e-20
-2.44966e-22
-4.87667e-22
5.69629e-20
2.78379e-22
4.56582e-22
5.7433e-20
-2.79036e-22
-3.911e-22
5.70373e-20
2.57269e-22
3.09266e-22
5.73387e-20
-2.08507e-22
-2.18585e-22
5.71312e-20
1.56914e-22
1.40708e-22
5.72591e-20
-1.01803e-22
-7.86769e-23
5.71889e-20
6.21152e-23
3.99639e-23
5.72226e-20
-3.08493e-23
-1.63894e-23
5.72089e-20
1.52182e-23
5.98756e-24
5.7213e-20
-4.94102e-24
-5.17963e-25
5.72128e-20
1.9668e-24
-5.93595e-25
5.72117e-20
3.2215e-25
1.51073e-24
5.7213e-20
1.48753e-26
-1.04354e-24
5.72118e-20
5.32565e-25
1.24953e-24
5.72125e-20
2.76527e-25
-6.19563e-25
5.72122e-20
-1.00619e-25
4.86905e-25
5.72119e-20
7.565e-25
1.38651e-25
5.72127e-20
-8.26421e-25
-4.9894e-25
5.72114e-20
1.06872e-24
1.038e-24
5.7213e-20
-1.29661e-24
-1.46052e-24
5.7211e-20
1.26473e-24
1.76858e-24
5.72133e-20
-1.59775e-24
-2.15998e-24
5.72109e-20
1.22768e-24
2.26899e-24
5.72136e-20
-1.98522e-24
-2.72559e-24
5.7211e-20
1.14389e-24
2.47816e-24
5.72143e-20
-2.53049e-24
-3.28771e-24
5.72113e-20
1.15388e-24
2.71771e-24
5.72154e-20
-3.25556e-24
-4.00261e-24
5.72115e-20
1.35938e-24
3.29837e-24
5.72162e-20
-3.8118e-24
-4.64321e-24
5.7209e-20
3.19828e-24
5.25071e-24
5.7209e-20
-4.08668e-25
-2.19905e-24
5.71782e-20
1.98133e-23
1.69578e-23
2.95899e-23
2.27884e-23
8.02728e-20
-7.21751e-23
7.88855e-23
8.05956e-20
-1.8935e-22
-2.76569e-22
8.04356e-20
3.07602e-23
1.94735e-22
8.0629e-20
-6.48609e-23
-2.1646e-22
8.04297e-20
6.01618e-23
2.23122e-22
8.06229e-20
-5.24101e-23
-2.25423e-22
8.04237e-20
4.55225e-23
2.33028e-22
8.06237e-20
-3.71983e-23
-2.44348e-22
8.04116e-20
2.7606e-23
2.62746e-22
8.06359e-20
-1.64961e-23
-2.89873e-22
8.03809e-20
1.28677e-23
3.31888e-22
8.06793e-20
-2.2598e-23
-3.86193e-22
8.03206e-20
4.67065e-23
4.45012e-22
8.0747e-20
-8.3698e-23
-5.01825e-22
8.02576e-20
1.47725e-22
5.46423e-22
8.07838e-20
-2.13411e-22
-5.5587e-22
8.02596e-20
2.75617e-22
5.28187e-22
8.07364e-20
-2.99074e-22
-4.54644e-22
8.03413e-20
2.93712e-22
3.6037e-22
8.06363e-20
-2.47563e-22
-2.54024e-22
8.0438e-20
1.93213e-22
1.63891e-22
8.05567e-20
-1.2774e-22
-9.13437e-23
8.04938e-20
7.98637e-23
4.6758e-23
8.05226e-20
-3.99643e-23
-1.88415e-23
8.05118e-20
2.03832e-23
6.99476e-24
8.05145e-20
-6.68984e-24
-5.33721e-25
8.05149e-20
3.07889e-24
-6.34519e-25
8.05135e-20
1.39859e-25
1.76041e-24
8.05149e-20
4.54723e-25
-1.11369e-24
8.05137e-20
4.35267e-25
1.4354e-24
8.05144e-20
7.32304e-25
-5.97878e-25
8.0514e-20
-3.23079e-25
5.42319e-25
8.05137e-20
1.19213e-24
2.77638e-25
8.05144e-20
-1.09455e-24
-6.71161e-25
8.05131e-20
1.3603e-24
1.2591e-24
8.05148e-20
-1.49866e-24
-1.78677e-24
8.05128e-20
1.34305e-24
2.10039e-24
8.05151e-20
-1.69883e-24
-2.61735e-24
8.05126e-20
1.07461e-24
2.57692e-24
8.05155e-20
-2.09353e-24
-3.3406e-24
8.05129e-20
7.26052e-25
2.78824e-24
8.05163e-20
-2.76009e-24
-4.08616e-24
8.05134e-20
5.36409e-25
2.99744e-24
8.05176e-20
-3.67396e-24
-5.00755e-24
8.05139e-20
6.87059e-25
3.55133e-24
8.05186e-20
-4.24045e-24
-5.73245e-24
8.05105e-20
4.26765e-24
5.78282e-24
8.05087e-20
2.76465e-24
-2.54056e-24
8.04687e-20
3.60835e-23
2.22158e-23
4.73553e-23
3.11845e-23
9.85642e-20
-1.18628e-22
4.8136e-23
9.89191e-20
-2.59835e-22
-2.86031e-22
9.87677e-20
1.97359e-24
1.7883e-22
9.89624e-20
-5.80228e-23
-2.03227e-22
9.87626e-20
5.1108e-23
2.07055e-22
9.89548e-20
-3.86074e-23
-2.07306e-22
9.8756e-20
3.14502e-23
2.11162e-22
9.89547e-20
-1.82853e-23
-2.18537e-22
9.87426e-20
3.33928e-24
2.34669e-22
9.89667e-20
1.82879e-23
-2.59216e-22
9.87097e-20
-3.29314e-23
3.01649e-22
9.90124e-20
3.42312e-23
-3.59171e-22
9.86464e-20
-1.21366e-23
4.24407e-22
9.90823e-20
-2.82059e-23
-4.90213e-22
9.85826e-20
1.00169e-22
5.47738e-22
9.91179e-20
-1.76718e-22
-5.70198e-22
9.85876e-20
2.54034e-22
5.53048e-22
9.90662e-20
-2.92174e-22
-4.83405e-22
9.86733e-20
3.00157e-22
3.88112e-22
9.89634e-20
-2.59412e-22
-2.76282e-22
9.8771e-20
2.06509e-22
1.80943e-22
9.88843e-20
-1.37834e-22
-1.01831e-22
9.88255e-20
8.72163e-23
5.30583e-23
9.88517e-20
-4.40509e-23
-2.12711e-23
9.88423e-20
2.28767e-23
8.1818e-24
9.88443e-20
-7.56882e-24
-7.05043e-25
9.88451e-20
3.7118e-24
-4.73519e-25
9.88436e-20
3.01225e-26
1.8113e-24
9.8845e-20
7.5051e-25
-1.02324e-24
9.88437e-20
3.79682e-25
1.44826e-24
9.88444e-20
1.02283e-24
-4.56986e-25
9.8844e-20
-3.99815e-25
4.513e-25
9.88437e-20
1.44326e-24
4.49946e-25
9.88444e-20
-1.16032e-24
-8.34338e-25
9.88431e-20
1.47712e-24
1.43951e-24
9.88447e-20
-1.48096e-24
-1.99147e-24
9.88427e-20
1.30166e-24
2.24278e-24
9.8845e-20
-1.615e-24
-2.80747e-24
9.88426e-20
8.87434e-25
2.61678e-24
9.88454e-20
-2.04033e-24
-3.5348e-24
9.88429e-20
3.49404e-25
2.71204e-24
9.88463e-20
-2.81159e-24
-4.32525e-24
9.88435e-20
9.98498e-27
2.81589e-24
9.88479e-20
-3.86473e-24
-5.32674e-24
9.88442e-20
1.94956e-25
3.28795e-24
9.8849e-20
-4.32872e-24
-6.0925e-24
9.88403e-20
5.68784e-24
6.03334e-24
9.88371e-20
6.61957e-24
-1.83845e-24
9.87914e-20
5.43508e-23
2.6022e-23
6.34749e-23
3.76381e-23
1.13458e-19
-2.02552e-22
6.60562e-23
1.13838e-19
-3.2761e-22
-3.1338e-22
1.13693e-19
-3.45966e-23
1.79339e-22
1.13889e-19
-4.68763e-23
-2.08729e-22
1.13689e-19
3.96051e-23
2.1005e-22
1.13881e-19
-2.28409e-23
-2.08983e-22
1.13682e-19
1.71936e-23
2.11779e-22
1.1388e-19
-1.79477e-24
-2.16013e-22
1.13667e-19
-1.26913e-23
2.27635e-22
1.13892e-19
3.88906e-23
-2.46289e-22
1.13632e-19
-5.63049e-23
2.82227e-22
1.13939e-19
6.41386e-23
-3.36554e-22
1.13568e-19
-4.59072e-23
4.05092e-22
1.1401e-19
4.55405e-24
-4.74001e-22
1.13504e-19
6.74548e-23
5.3908e-22
1.14044e-19
-1.47626e-22
-5.67221e-22
1.13512e-19
2.31378e-22
5.56229e-22
1.1399e-19
-2.76726e-22
-4.91436e-22
1.136e-19
2.92626e-22
3.99375e-22
1.13886e-19
-2.56347e-22
-2.87415e-22
1.13697e-19
2.06603e-22
1.90194e-22
1.13807e-19
-1.3889e-22
-1.07617e-22
1.13751e-19
8.86164e-23
5.66355e-23
1.13776e-19
-4.50502e-23
-2.29391e-23
1.13767e-19
2.36385e-23
9.11523e-24
1.13769e-19
-7.88826e-24
-9.09237e-25
1.1377e-19
4.00209e-24
-2.97143e-25
1.13768e-19
-2.64092e-26
1.81956e-24
1.1377e-19
9.44358e-25
-9.49154e-25
1.13768e-19
3.6266e-25
1.44595e-24
1.13769e-19
1.21459e-24
-3.73734e-25
1.13768e-19
-3.99597e-25
4.15773e-25
1.13768e-19
1.59208e-24
5.43607e-25
1.13769e-19
-1.1358e-24
-8.87343e-25
1.13767e-19
1.53516e-24
1.49732e-24
1.13769e-19
-1.40115e-24
-2.03093e-24
1.13767e-19
1.26365e-24
2.25264e-24
1.13769e-19
-1.51626e-24
-2.81464e-24
1.13767e-19
7.44628e-25
2.57529e-24
1.1377e-19
-2.00308e-24
-3.53606e-24
1.13767e-19
3.63812e-26
2.62492e-24
1.13771e-19
-2.87943e-24
-4.34942e-24
1.13768e-19
-4.50789e-25
2.68755e-24
1.13773e-19
-4.03287e-24
-5.41401e-24
1.13769e-19
-2.20585e-25
3.15247e-24
1.13774e-19
-4.30768e-24
-6.22176e-24
1.13765e-19
7.13736e-24
6.37324e-24
1.13761e-19
1.0564e-23
-9.82631e-25
1.13711e-19
7.28852e-23
2.94169e-23
7.80065e-23
4.20971e-23
1.25806e-19
-2.69759e-22
3.47174e-23
1.26204e-19
-3.98628e-22
-3.28406e-22
1.26066e-19
-6.70555e-23
1.69203e-22
1.26263e-19
-3.39926e-23
-2.11122e-22
1.26062e-19
2.57163e-23
2.12559e-22
1.26254e-19
-5.71912e-24
-2.10129e-22
1.26054e-19
2.00827e-24
2.13146e-22
1.26253e-19
1.51031e-23
-2.16647e-22
1.26039e-19
-2.69137e-23
2.27289e-22
1.26266e-19
5.49518e-23
-2.43419e-22
1.26003e-19
-7.08613e-23
2.76444e-22
1.26313e-19
8.11352e-23
-3.27422e-22
1.25937e-19
-6.49715e-23
3.94733e-22
1.26384e-19
2.46639e-23
-4.65678e-22
1.25875e-19
4.52589e-23
5.32003e-22
1.26417e-19
-1.26033e-22
-5.61669e-22
1.25884e-19
2.116e-22
5.53434e-22
1.26361e-19
-2.59318e-22
-4.91967e-22
1.25973e-19
2.79056e-22
4.02918e-22
1.26256e-19
-2.46231e-22
-2.91734e-22
1.26071e-19
2.00234e-22
1.94096e-22
1.26179e-19
-1.35342e-22
-1.103e-22
1.26124e-19
8.6954e-23
5.83513e-23
1.26148e-19
-4.43842e-23
-2.38575e-23
1.26139e-19
2.34533e-23
9.64577e-24
1.26141e-19
-7.87629e-24
-1.06846e-24
1.26142e-19
4.09088e-24
-1.82494e-25
1.2614e-19
-4.70448e-26
1.81261e-24
1.26142e-19
1.06681e-24
-8.9062e-25
1.2614e-19
3.67381e-25
1.44943e-24
1.26141e-19
1.33662e-24
-3.13533e-25
1.26141e-19
-3.63428e-25
4.09248e-25
1.2614e-19
1.67062e-24
6.09769e-25
1.26141e-19
-1.07007e-24
-8.95843e-25
1.2614e-19
1.55863e-24
1.52841e-24
1.26141e-19
-1.30197e-24
-2.02711e-24
1.26139e-19
1.23308e-24
2.255e-24
1.26141e-19
-1.41812e-24
-2.79967e-24
1.26139e-19
6.31184e-25
2.54852e-24
1.26142e-19
-1.96451e-24
-3.5456e-24
1.26139e-19
-2.34349e-25
2.56993e-24
1.26143e-19
-2.93355e-24
-4.38815e-24
1.2614e-19
-8.57953e-25
2.59314e-24
1.26145e-19
-4.14642e-24
-5.51274e-24
1.26141e-19
-5.57117e-25
3.03267e-24
1.26146e-19
-4.19723e-24
-6.3299e-24
1.26137e-19
8.65749e-24
6.48806e-24
1.26132e-19
1.45014e-23
-4.02443e-25
1.26081e-19
9.03494e-23
3.27006e-23
9.04437e-23
4.57929e-23
1.36149e-19
-3.18449e-22
6.55835e-24
1.3656e-19
-4.73025e-22
-3.38186e-22
1.36426e-19
-9.19429e-23
1.57193e-22
1.36623e-19
-2.70389e-23
-2.05755e-22
1.36423e-19
1.57588e-23
2.08571e-22
1.36615e-19
7.15119e-24
-2.05903e-22
1.36415e-19
-8.88374e-24
2.09389e-22
1.36614e-19
2.82277e-23
-2.13382e-22
1.36398e-19
-3.7101e-23
2.24768e-22
1.36627e-19
6.6453e-23
-2.40577e-22
1.36361e-19
-7.9756e-23
2.73436e-22
1.36675e-19
9.05937e-23
-3.22821e-22
1.36296e-19
-7.51428e-23
3.88808e-22
1.36745e-19
3.68049e-23
-4.60241e-22
1.36234e-19
3.00624e-23
5.26438e-22
1.36776e-19
-1.09491e-22
-5.56852e-22
1.36245e-19
1.94147e-22
5.50122e-22
1.36719e-19
-2.41683e-22
-4.90513e-22
1.36334e-19
2.62964e-22
4.0339e-22
1.36615e-19
-2.33094e-22
-2.92901e-22
1.36431e-19
1.90832e-22
1.95567e-22
1.36538e-19
-1.29495e-22
-1.1156e-22
1.36484e-19
8.36286e-23
5.93195e-23
1.36507e-19
-4.2798e-23
-2.44346e-23
1.36499e-19
2.27398e-23
9.97997e-24
1.36501e-19
-7.66359e-24
-1.19879e-24
1.36502e-19
4.05706e-24
-1.02566e-25
1.365e-19
-4.42256e-26
1.80031e-24
1.36502e-19
1.14275e-24
-8.49204e-25
1.365e-19
3.86454e-25
1.45142e-24
1.36501e-19
1.40866e-24
-2.69201e-25
1.365e-19
-3.02806e-25
4.04334e-25
1.365e-19
1.70196e-24
6.55426e-25
1.36501e-19
-9.78364e-25
-8.95399e-25
1.36499e-19
1.55725e-24
1.54903e-24
1.36501e-19
-1.18682e-24
-2.02145e-24
1.36499e-19
1.20257e-24
2.26199e-24
1.36501e-19
-1.30887e-24
-2.7929e-24
1.36499e-19
5.38576e-25
2.53042e-24
1.36502e-19
-1.90048e-24
-3.57064e-24
1.36499e-19
-4.52e-25
2.51191e-24
1.36503e-19
-2.95148e-24
-4.43509e-24
1.365e-19
-1.19119e-24
2.49613e-24
1.36505e-19
-4.2012e-24
-5.5966e-24
1.36501e-19
-7.98742e-25
2.91117e-24
1.36506e-19
-4.03774e-24
-6.39904e-24
1.36497e-19
1.01956e-23
6.51571e-24
1.36492e-19
1.82173e-23
7.57896e-26
1.36439e-19
1.05128e-22
3.65858e-23
1.00475e-22
4.89211e-23
1.44861e-19
-3.59232e-22
-6.68742e-24
1.45281e-19
-5.42504e-22
-3.51773e-22
1.4515e-19
-1.13223e-22
1.50702e-22
1.45348e-19
-2.53339e-23
-2.01135e-22
1.45147e-19
9.60282e-24
2.04713e-22
1.4534e-19
1.506e-23
-2.0124e-22
1.45139e-19
-1.46661e-23
2.04968e-22
1.45339e-19
3.63501e-23
-2.09165e-22
1.45121e-19
-4.21296e-23
2.2115e-22
1.45352e-19
7.25482e-23
-2.36853e-22
1.45084e-19
-8.32782e-23
2.7027e-22
1.454e-19
9.41555e-23
-3.19071e-22
1.45019e-19
-7.94772e-23
3.848e-22
1.45469e-19
4.31616e-23
-4.55582e-22
1.44958e-19
1.96636e-23
5.21645e-22
1.455e-19
-9.624e-23
-5.52744e-22
1.44969e-19
1.78071e-22
5.4724e-22
1.45443e-19
-2.24132e-22
-4.88806e-22
1.45059e-19
2.45833e-22
4.02857e-22
1.45339e-19
-2.18728e-22
-2.92972e-22
1.45155e-19
1.79953e-22
1.96193e-22
1.45262e-19
-1.22443e-22
-1.1231e-22
1.45208e-19
7.93861e-23
5.99532e-23
1.45232e-19
-4.06863e-23
-2.48608e-23
1.45224e-19
2.17255e-23
1.02159e-23
1.45225e-19
-7.32758e-24
-1.30868e-24
1.45226e-19
3.94905e-24
-4.8452e-26
1.45224e-19
-2.78396e-26
1.78678e-24
1.45226e-19
1.18823e-24
-8.19489e-25
1.45224e-19
4.12792e-25
1.45492e-24
1.45225e-19
1.44748e-24
-2.405e-25
1.45225e-19
-2.22685e-25
3.95814e-25
1.45224e-19
1.7019e-24
6.87059e-25
1.45225e-19
-8.69495e-25
-8.9139e-25
1.45224e-19
1.53807e-24
1.56138e-24
1.45225e-19
-1.06091e-24
-2.01349e-24
1.45223e-19
1.1695e-24
2.26996e-24
1.45225e-19
-1.19441e-24
-2.77735e-24
1.45223e-19
4.65788e-25
2.51247e-24
1.45226e-19
-1.81601e-24
-3.58403e-24
1.45223e-19
-6.10492e-25
2.4546e-24
1.45227e-19
-2.93493e-24
-4.4676e-24
1.45224e-19
-1.4509e-24
2.41371e-24
1.45229e-19
-4.21124e-24
-5.64971e-24
1.45225e-19
-9.62707e-25
2.81958e-24
1.4523e-19
-3.85268e-24
-6.4478e-24
1.45221e-19
1.15906e-23
6.60049e-24
1.45216e-19
2.14954e-23
5.14906e-25
1.45163e-19
1.16487e-22
4.04752e-23
1.07979e-22
5.15718e-23
1.52223e-19
-3.90965e-22
-1.75411e-23
1.52647e-19
-5.99955e-22
-3.68467e-22
1.52518e-19
-1.32337e-22
1.46979e-22
1.52716e-19
-2.52644e-23
-2.00116e-22
1.52516e-19
5.13676e-24
2.0304e-22
1.52708e-19
1.99028e-23
-1.98661e-22
1.52507e-19
-1.71969e-23
2.02499e-22
1.52708e-19
4.0695e-23
-2.06363e-22
1.52489e-19
-4.3208e-23
2.18681e-22
1.52721e-19
7.42104e-23
-2.33991e-22
1.52451e-19
-8.254e-23
2.67772e-22
1.52769e-19
9.33458e-23
-3.16174e-22
1.52387e-19
-7.97728e-23
3.8167e-22
1.52837e-19
4.57461e-23
-4.51931e-22
1.52327e-19
1.27742e-23
5.17258e-22
1.52867e-19
-8.53273e-23
-5.49005e-22
1.52339e-19
1.6284e-22
5.44717e-22
1.52811e-19
-2.06696e-22
-4.87273e-22
1.52428e-19
2.2827e-22
4.02167e-22
1.52707e-19
-2.03844e-22
-2.92862e-22
1.52524e-19
1.6832e-22
1.96597e-22
1.52631e-19
-1.14714e-22
-1.12917e-22
1.52577e-19
7.46129e-23
6.04577e-23
1.526e-19
-3.8261e-23
-2.52187e-23
1.52592e-19
2.05319e-23
1.0405e-23
1.52594e-19
-6.91371e-24
-1.40429e-24
1.52595e-19
3.7937e-24
-8.45774e-27
1.52593e-19
-6.93013e-27
1.77635e-24
1.52594e-19
1.20869e-24
-7.94167e-25
1.52593e-19
4.38468e-25
1.46084e-24
1.52594e-19
1.46098e-24
-2.19495e-25
1.52593e-19
-1.40458e-25
3.98036e-25
1.52593e-19
1.67725e-24
7.11773e-25
1.52594e-19
-7.5515e-25
-8.81544e-25
1.52592e-19
1.50264e-24
1.5715e-24
1.52594e-19
-9.32871e-25
-2.00013e-24
1.52592e-19
1.13052e-24
2.27925e-24
1.52594e-19
-1.08543e-24
-2.7507e-24
1.52592e-19
4.07778e-25
2.49962e-24
1.52594e-19
-1.72192e-24
-3.58129e-24
1.52592e-19
-7.23062e-25
2.41643e-24
1.52595e-19
-2.88584e-24
-4.48775e-24
1.52593e-19
-1.63594e-24
2.34286e-24
1.52597e-19
-4.17536e-24
-5.68925e-24
1.52594e-19
-1.06077e-24
2.75031e-24
1.52599e-19
-3.64664e-24
-6.49524e-24
1.5259e-19
1.27574e-23
6.69476e-24
1.52585e-19
2.41929e-23
9.00459e-25
1.52532e-19
1.24473e-22
4.37867e-23
1.12908e-22
5.38522e-23
1.5845e-19
-4.10772e-22
-2.82283e-23
1.58876e-19
-6.42598e-22
-3.84476e-22
1.58747e-19
-1.48452e-22
1.4355e-22
1.58946e-19
-2.50398e-23
-2.00802e-22
1.58746e-19
1.65398e-24
2.02174e-22
1.58939e-19
2.31012e-23
-1.97608e-22
1.58736e-19
-1.80653e-23
2.01636e-22
1.58939e-19
4.27163e-23
-2.05086e-22
1.58718e-19
-4.19004e-23
2.17625e-22
1.58951e-19
7.29123e-23
-2.32416e-22
1.58681e-19
-7.90125e-23
2.66308e-22
1.58999e-19
8.95533e-23
-3.14087e-22
1.58617e-19
-7.72507e-23
3.79039e-22
1.59067e-19
4.57419e-23
-4.48792e-22
1.58558e-19
8.43156e-24
5.13352e-22
1.59096e-19
-7.60878e-23
-5.45675e-22
1.5857e-19
1.48181e-22
5.42496e-22
1.5904e-19
-1.89372e-22
-4.86006e-22
1.58658e-19
2.10469e-22
4.01667e-22
1.58938e-19
-1.88677e-22
-2.92918e-22
1.58754e-19
1.56263e-22
1.97012e-22
1.58861e-19
-1.06577e-22
-1.13497e-22
1.58807e-19
6.95184e-23
6.09072e-23
1.5883e-19
-3.56428e-23
-2.55384e-23
1.58822e-19
1.92254e-23
1.05679e-23
1.58824e-19
-6.45294e-24
-1.4857e-24
1.58825e-19
3.60563e-24
2.17718e-26
1.58823e-19
1.28098e-26
1.76675e-24
1.58825e-19
1.20776e-24
-7.71884e-25
1.58823e-19
4.58121e-25
1.4688e-24
1.58824e-19
1.45238e-24
-2.029e-25
1.58824e-19
-6.90757e-26
4.07278e-25
1.58823e-19
1.63178e-24
7.326e-25
1.58824e-19
-6.44912e-25
-8.66604e-25
1.58823e-19
1.45115e-24
1.58013e-24
1.58824e-19
-8.09149e-25
-1.98429e-24
1.58822e-19
1.08294e-24
2.29032e-24
1.58824e-19
-9.8606e-25
-2.71985e-24
1.58822e-19
3.59184e-25
2.4915e-24
1.58825e-19
-1.62352e-24
-3.5701e-24
1.58822e-19
-7.97659e-25
2.3912e-24
1.58826e-19
-2.80281e-24
-4.50043e-24
1.58823e-19
-1.74956e-24
2.2852e-24
1.58828e-19
-4.08421e-24
-5.72598e-24
1.58824e-19
-1.09977e-24
2.6972e-24
1.58829e-19
-3.41731e-24
-6.54647e-24
1.5882e-19
1.36427e-23
6.78739e-24
1.58816e-19
2.62187e-23
1.23172e-24
1.58763e-19
1.29394e-22
4.64179e-23
1.15278e-22
5.58425e-23
1.63717e-19
-4.18614e-22
-3.6344e-23
1.64141e-19
-6.70009e-22
-3.97977e-22
1.64012e-19
-1.6074e-22
1.40284e-22
1.64211e-19
-2.51097e-23
-2.00933e-22
1.6401e-19
-7.15945e-25
2.01256e-22
1.64204e-19
2.51285e-23
-1.97085e-22
1.64001e-19
-1.78928e-23
2.01354e-22
1.64204e-19
4.31761e-23
-2.04566e-22
1.63983e-19
-3.92557e-23
2.17408e-22
1.64217e-19
6.9701e-23
-2.31661e-22
1.63945e-19
-7.3795e-23
2.6553e-22
1.64264e-19
8.37668e-23
-3.1251e-22
1.63882e-19
-7.28545e-23
3.76845e-22
1.64331e-19
4.38827e-23
-4.45962e-22
1.63824e-19
5.74459e-24
5.10102e-22
1.64361e-19
-6.79308e-23
-5.42892e-22
1.63836e-19
1.33958e-22
5.40553e-22
1.64305e-19
-1.72172e-22
-4.84983e-22
1.63924e-19
1.92469e-22
4.01441e-22
1.64203e-19
-1.73294e-22
-2.93194e-22
1.6402e-19
1.43932e-22
1.97504e-22
1.64127e-19
-9.81883e-23
-1.14067e-22
1.64072e-19
6.42235e-23
6.13243e-23
1.64096e-19
-3.29042e-23
-2.58284e-23
1.64088e-19
1.78445e-23
1.07133e-23
1.64089e-19
-5.9657e-24
-1.55463e-24
1.6409e-19
3.39384e-24
4.59596e-26
1.64089e-19
2.9412e-26
1.75681e-24
1.6409e-19
1.18749e-24
-7.5283e-25
1.64089e-19
4.66845e-25
1.47777e-24
1.6409e-19
1.42324e-24
-1.89037e-25
1.64089e-19
-5.26532e-27
4.08768e-25
1.64089e-19
1.56714e-24
7.50473e-25
1.6409e-19
-5.45836e-25
-8.49514e-25
1.64088e-19
1.38366e-24
1.58791e-24
1.6409e-19
-6.94154e-25
-1.96756e-24
1.64088e-19
1.02428e-24
2.30228e-24
1.6409e-19
-8.96385e-25
-2.69071e-24
1.64087e-19
3.16099e-25
2.48741e-24
1.6409e-19
-1.52229e-24
-3.55483e-24
1.64088e-19
-8.40699e-25
2.37595e-24
1.64091e-19
-2.68524e-24
-4.50711e-24
1.64089e-19
-1.79739e-24
2.24156e-24
1.64093e-19
-3.93136e-24
-5.75875e-24
1.6409e-19
-1.08619e-24
2.65769e-24
1.64095e-19
-3.16542e-24
-6.59815e-24
1.64086e-19
1.42128e-23
6.8763e-24
1.64082e-19
2.75165e-23
1.51544e-24
1.6403e-19
1.31493e-22
4.85548e-23
1.15159e-22
5.75835e-23
1.68164e-19
-4.15542e-22
-4.12749e-23
1.68584e-19
-6.82244e-22
-4.09013e-22
1.68453e-19
-1.68896e-22
1.37572e-22
1.68653e-19
-2.58493e-23
-2.00559e-22
1.68452e-19
-1.94217e-24
2.00356e-22
1.68647e-19
2.61436e-23
-1.96743e-22
1.68443e-19
-1.687e-23
2.01196e-22
1.68647e-19
4.23887e-23
-2.04304e-22
1.68425e-19
-3.58177e-23
2.17507e-22
1.6866e-19
6.51819e-23
-2.31279e-22
1.68388e-19
-6.7596e-23
2.65102e-22
1.68706e-19
7.67153e-23
-3.11287e-22
1.68325e-19
-6.72972e-23
3.75036e-22
1.68773e-19
4.07737e-23
-4.43513e-22
1.68268e-19
4.03437e-24
5.07466e-22
1.68803e-19
-6.04063e-23
-5.40645e-22
1.68279e-19
1.20102e-22
5.38868e-22
1.68748e-19
-1.55131e-22
-4.8416e-22
1.68366e-19
1.74308e-22
4.01414e-22
1.68646e-19
-1.57716e-22
-2.93644e-22
1.68462e-19
1.31401e-22
1.98064e-22
1.68569e-19
-8.96499e-23
-1.14616e-22
1.68515e-19
5.88023e-23
6.17107e-23
1.68539e-19
-3.0091e-23
-2.60919e-23
1.68531e-19
1.64109e-23
1.08447e-23
1.68532e-19
-5.4647e-24
-1.6143e-24
1.68533e-19
3.16218e-24
6.55268e-26
1.68531e-19
4.03386e-26
1.74671e-24
1.68533e-19
1.14918e-24
-7.35585e-25
1.68532e-19
4.61985e-25
1.48751e-24
1.68532e-19
1.3737e-24
-1.77364e-25
1.68532e-19
4.82806e-26
4.08893e-25
1.68532e-19
1.48374e-24
7.6743e-25
1.68532e-19
-4.61082e-25
-8.3258e-25
1.68531e-19
1.29987e-24
1.59467e-24
1.68532e-19
-5.90807e-25
-1.95169e-24
1.6853e-19
9.53089e-25
2.31509e-24
1.68533e-19
-8.14371e-25
-2.66498e-24
1.6853e-19
2.75094e-25
2.48597e-24
1.68533e-19
-1.41746e-24
-3.53979e-24
1.6853e-19
-8.57036e-25
2.36818e-24
1.68534e-19
-2.53254e-24
-4.50924e-24
1.68531e-19
-1.78316e-24
2.20727e-24
1.68536e-19
-3.71391e-24
-5.7867e-24
1.68532e-19
-1.02604e-24
2.63032e-24
1.68537e-19
-2.89349e-24
-6.64671e-24
1.68529e-19
1.445e-23
6.95849e-24
1.68525e-19
2.80547e-23
1.76174e-24
1.68474e-19
1.30895e-22
5.04242e-23
1.12669e-22
5.91094e-23
1.71908e-19
-4.02486e-22
-4.36592e-23
1.72322e-19
-6.79345e-22
-4.1815e-22
1.72189e-19
-1.72683e-22
1.35315e-22
1.72389e-19
-2.70439e-23
-2.00241e-22
1.72188e-19
-2.1874e-24
1.99638e-22
1.72383e-19
2.63371e-23
-1.9659e-22
1.72179e-19
-1.51381e-23
2.0109e-22
1.72384e-19
4.05638e-23
-2.04167e-22
1.72161e-19
-3.18888e-23
2.17686e-22
1.72397e-19
5.9739e-23
-2.31066e-22
1.72124e-19
-6.08637e-23
2.6483e-22
1.72443e-19
6.89405e-23
-3.10337e-22
1.72062e-19
-6.10368e-23
3.73504e-22
1.72509e-19
3.69938e-23
-4.41558e-22
1.72005e-19
2.83891e-24
5.05338e-22
1.72539e-19
-5.32284e-23
-5.38832e-22
1.72016e-19
1.06577e-22
5.37422e-22
1.72484e-19
-1.38281e-22
-4.83494e-22
1.72103e-19
1.56062e-22
4.01479e-22
1.72383e-19
-1.41951e-22
-2.94207e-22
1.72199e-19
1.18713e-22
1.98662e-22
1.72306e-19
-8.10187e-23
-1.15142e-22
1.72251e-19
5.32992e-23
6.20691e-23
1.72276e-19
-2.72334e-23
-2.6328e-23
1.72267e-19
1.49378e-23
1.09643e-23
1.72269e-19
-4.95746e-24
-1.66652e-24
1.7227e-19
2.91442e-24
8.13075e-26
1.72268e-19
4.34635e-26
1.73808e-24
1.7227e-19
1.09259e-24
-7.19784e-25
1.72268e-19
4.40918e-25
1.49724e-24
1.72269e-19
1.30329e-24
-1.66532e-25
1.72269e-19
8.27562e-26
4.15314e-25
1.72268e-19
1.38068e-24
7.83813e-25
1.72269e-19
-3.91998e-25
-8.17944e-25
1.72268e-19
1.19962e-24
1.60097e-24
1.72269e-19
-5.01501e-25
-1.93624e-24
1.72267e-19
8.67903e-25
2.32801e-24
1.72269e-19
-7.38666e-25
-2.6433e-24
1.72267e-19
2.32951e-25
2.48771e-24
1.7227e-19
-1.30666e-24
-3.52678e-24
1.72267e-19
-8.49606e-25
2.36458e-24
1.72271e-19
-2.34393e-24
-4.50929e-24
1.72268e-19
-1.70998e-24
2.18045e-24
1.72272e-19
-3.43145e-24
-5.80919e-24
1.72269e-19
-9.24387e-25
2.61215e-24
1.72274e-19
-2.60295e-24
-6.69338e-24
1.72266e-19
1.43472e-23
7.03518e-24
1.72263e-19
2.78255e-23
1.97809e-24
1.72213e-19
1.27656e-22
5.21687e-23
1.07958e-22
6.04414e-23
1.75046e-19
-3.80208e-22
-4.4166e-23
1.75453e-19
-6.61398e-22
-4.25876e-22
1.75317e-19
-1.71901e-22
1.33376e-22
1.75517e-19
-2.81494e-23
-2.00292e-22
1.75316e-19
-1.54943e-24
1.99019e-22
1.75511e-19
2.59099e-23
-1.96608e-22
1.75306e-19
-1.28661e-23
2.01054e-22
1.75512e-19
3.79067e-23
-2.04131e-22
1.75289e-19
-2.77018e-23
2.17895e-22
1.75526e-19
5.36498e-23
-2.30942e-22
1.75253e-19
-5.38671e-23
2.64604e-22
1.75571e-19
6.07751e-23
-3.09543e-22
1.75192e-19
-5.4386e-23
3.72203e-22
1.75637e-19
3.28412e-23
-4.39918e-22
1.75135e-19
1.82846e-24
5.03663e-22
1.75667e-19
-4.62556e-23
-5.37338e-22
1.75145e-19
9.33429e-23
5.36203e-22
1.75613e-19
-1.21647e-22
-4.82956e-22
1.75231e-19
1.3783e-22
4.01553e-22
1.75512e-19
-1.25988e-22
-2.94845e-22
1.75327e-19
1.05856e-22
1.99307e-22
1.75435e-19
-7.23237e-23
-1.15646e-22
1.7538e-19
4.77341e-23
6.24052e-23
1.75405e-19
-2.43527e-23
-2.65377e-23
1.75396e-19
1.34321e-23
1.10729e-23
1.75398e-19
-4.44872e-24
-1.7129e-24
1.75399e-19
2.65108e-24
9.42388e-26
1.75397e-19
3.73035e-26
1.72948e-24
1.75399e-19
1.01828e-24
-7.05061e-25
1.75397e-19
4.02994e-25
1.50698e-24
1.75398e-19
1.21169e-24
-1.56918e-25
1.75398e-19
9.68666e-26
4.20746e-25
1.75397e-19
1.25743e-24
8.00251e-25
1.75398e-19
-3.38975e-25
-8.04763e-25
1.75397e-19
1.08269e-24
1.60649e-24
1.75398e-19
-4.27961e-25
-1.92192e-24
1.75396e-19
7.68202e-25
2.34119e-24
1.75398e-19
-6.67235e-25
-2.62545e-24
1.75396e-19
1.87004e-25
2.49111e-24
1.75399e-19
-1.18564e-24
-3.51946e-24
1.75396e-19
-8.19393e-25
2.36239e-24
1.754e-19
-2.1175e-24
-4.50976e-24
1.75397e-19
-1.58032e-24
2.15791e-24
1.75401e-19
-3.0846e-24
-5.82784e-24
1.75398e-19
-7.86345e-25
2.60246e-24
1.75403e-19
-2.29477e-24
-6.73714e-24
1.75395e-19
1.39025e-23
7.11014e-24
1.75393e-19
2.68414e-23
2.17145e-24
1.75343e-19
1.2179e-22
5.38992e-23
1.01203e-22
6.16041e-23
1.77659e-19
-3.49569e-22
-4.31859e-23
1.78058e-19
-6.28592e-22
-4.32608e-22
1.77919e-19
-1.66479e-22
1.31704e-22
1.78119e-19
-2.87111e-23
-2.00637e-22
1.77917e-19
-1.41251e-25
1.98503e-22
1.78114e-19
2.50022e-23
-1.96725e-22
1.77908e-19
-1.02479e-23
2.01109e-22
1.78115e-19
3.45947e-23
-2.04161e-22
1.77891e-19
-2.34381e-23
2.18109e-22
1.78128e-19
4.71287e-23
-2.30879e-22
1.77856e-19
-4.68015e-23
2.64414e-22
1.78173e-19
5.2437e-23
-3.08871e-22
1.77795e-19
-4.75572e-23
3.71112e-22
1.78239e-19
2.85407e-23
-4.38581e-22
1.77738e-19
8.04731e-25
5.02349e-22
1.78269e-19
-3.94512e-23
-5.36062e-22
1.77748e-19
8.03636e-23
5.35195e-22
1.78216e-19
-1.05236e-22
-4.82525e-22
1.77834e-19
1.19689e-22
4.01613e-22
1.78115e-19
-1.09851e-22
-2.95477e-22
1.7793e-19
9.27854e-23
1.99997e-22
1.78038e-19
-6.35815e-23
-1.16118e-22
1.77983e-19
4.21143e-23
6.27218e-23
1.78007e-19
-2.14601e-23
-2.67239e-23
1.77999e-19
1.18962e-23
1.11734e-23
1.78001e-19
-3.94144e-24
-1.75357e-24
1.78002e-19
2.37182e-24
1.0698e-25
1.78e-19
2.18107e-26
1.72143e-24
1.78002e-19
9.26287e-25
-6.91659e-25
1.78e-19
3.47658e-25
1.51587e-24
1.78001e-19
1.0993e-24
-1.48252e-25
1.78001e-19
9.19592e-26
4.24064e-25
1.78e-19
1.11292e-24
8.16575e-25
1.78001e-19
-3.02841e-25
-7.9284e-25
1.78e-19
9.49305e-25
1.61164e-24
1.78001e-19
-3.70681e-25
-1.90881e-24
1.77999e-19
6.53439e-25
2.35392e-24
1.78001e-19
-5.98663e-25
-2.61175e-24
1.77999e-19
1.35254e-25
2.49622e-24
1.78002e-19
-1.04935e-24
-3.51841e-24
1.77999e-19
-7.66584e-25
2.3596e-24
1.78002e-19
-1.85162e-24
-4.51243e-24
1.77999e-19
-1.39694e-24
2.13896e-24
1.78004e-19
-2.67595e-24
-5.84238e-24
1.78e-19
-6.16978e-25
2.59935e-24
1.78005e-19
-1.96825e-24
-6.77984e-24
1.77998e-19
1.31203e-23
7.18662e-24
1.77996e-19
2.51366e-23
2.34411e-24
1.77948e-19
1.13266e-22
5.56973e-23
9.25949e-23
6.261e-23
1.79816e-19
-3.11557e-22
-4.10583e-23
1.80206e-19
-5.8136e-22
-4.38582e-22
1.80064e-19
-1.56477e-22
1.30255e-22
1.80263e-19
-2.83258e-23
-2.01241e-22
1.80061e-19
1.84693e-24
1.98163e-22
1.80258e-19
2.36956e-23
-1.96872e-22
1.80053e-19
-7.45897e-24
2.01245e-22
1.8026e-19
3.07795e-23
-2.04233e-22
1.80036e-19
-1.92187e-23
2.18303e-22
1.80273e-19
4.03311e-23
-2.30848e-22
1.80001e-19
-3.98045e-23
2.64263e-22
1.80318e-19
4.41026e-23
-3.08343e-22
1.7994e-19
-4.07223e-23
3.70246e-22
1.80383e-19
2.42529e-23
-4.37527e-22
1.79884e-19
-2.83836e-25
5.01264e-22
1.80414e-19
-3.2821e-23
-5.34956e-22
1.79893e-19
6.76096e-23
5.34363e-22
1.80361e-19
-8.90577e-23
-4.82167e-22
1.79979e-19
1.01706e-22
4.01633e-22
1.8026e-19
-9.36476e-23
-2.9598e-22
1.80075e-19
7.95036e-23
2.0066e-22
1.80184e-19
-5.47755e-23
-1.16579e-22
1.80128e-19
3.64355e-23
6.30229e-23
1.80153e-19
-1.8558e-23
-2.68935e-23
1.80144e-19
1.03285e-23
1.12675e-23
1.80146e-19
-3.43796e-24
-1.78907e-24
1.80147e-19
2.07804e-24
1.1603e-25
1.80145e-19
-3.2231e-27
1.71315e-24
1.80147e-19
8.17873e-25
-6.79437e-25
1.80146e-19
2.76172e-25
1.52402e-24
1.80146e-19
9.67106e-25
-1.41191e-25
1.80146e-19
6.69073e-26
4.27919e-25
1.80146e-19
9.48097e-25
8.32105e-25
1.80146e-19
-2.8268e-25
-7.82124e-25
1.80145e-19
8.00474e-25
1.61545e-24
1.80146e-19
-3.29632e-25
-1.89739e-24
1.80144e-19
5.24468e-25
2.36598e-24
1.80147e-19
-5.3189e-25
-2.60068e-24
1.80144e-19
7.77919e-26
2.49988e-24
1.80147e-19
-8.93586e-25
-3.52423e-24
1.80144e-19
-6.89872e-25
2.35411e-24
1.80148e-19
-1.54688e-24
-4.51607e-24
1.80145e-19
-1.16319e-24
2.12194e-24
1.80149e-19
-2.20893e-24
-5.85444e-24
1.80145e-19
-4.19728e-25
2.6007e-24
1.80151e-19
-1.62006e-24
-6.82261e-24
1.80143e-19
1.20111e-23
7.26626e-24
1.80142e-19
2.27718e-23
2.49088e-24
1.80094e-19
1.02064e-22