/*--------------------------------*- C++ -*----------------------------------*\
| =========                 |                                                 |
| \\      /  F ield         | OpenFOAM: The Open Source CFD Toolbox           |
|  \\    /   O peration     | Version:  2412                                  |
|   \\  /    A nd           | Website:  www.openfoam.com                      |
|    \\/     M anipulation  |                                                 |
\*---------------------------------------------------------------------------*/
FoamFile
{
    version     2.0;
    format      ascii;
    arch        "LSB;label=32;scalar=64";
    class       volVectorField;
    location    "4e-05";
    object      U;
}
// * * * * * * * * * * * * * * * * * * * * * * * * * * * * * * * * * * * * * //

dimensions      [0 1 -1 0 0 0 0];

internalField   nonuniform List<vector> 
96800
(
(4.12805e-07 1.18917e-10 1.18776e-10)
(4.14238e-07 -1.28311e-10 -1.28309e-10)
(4.14296e-07 1.16554e-10 1.16581e-10)
(4.14481e-07 -1.19721e-10 -1.19702e-10)
(4.14274e-07 1.21456e-10 1.21478e-10)
(4.1445e-07 -1.23639e-10 -1.23595e-10)
(4.14187e-07 1.26165e-10 1.26192e-10)
(4.14532e-07 -1.31075e-10 -1.31039e-10)
(4.14033e-07 1.38425e-10 1.38448e-10)
(4.14694e-07 -1.50883e-10 -1.50848e-10)
(4.13814e-07 1.68178e-10 1.68186e-10)
(4.14857e-07 -1.97869e-10 -1.97851e-10)
(4.13766e-07 2.2911e-10 2.29111e-10)
(4.14683e-07 -2.40478e-10 -2.40467e-10)
(4.14214e-07 2.5741e-10 2.57409e-10)
(4.13955e-07 -2.63142e-10 -2.63137e-10)
(4.15067e-07 2.56585e-10 2.56581e-10)
(4.13176e-07 -2.30579e-10 -2.30582e-10)
(4.15558e-07 1.92876e-10 1.92869e-10)
(4.13059e-07 -1.47232e-10 -1.4724e-10)
(4.15311e-07 1.03746e-10 1.03739e-10)
(4.13532e-07 -6.56025e-11 -6.56131e-11)
(4.14769e-07 3.79634e-11 3.79597e-11)
(4.14008e-07 -1.89391e-11 -1.89484e-11)
(4.14421e-07 8.58107e-12 8.57758e-12)
(4.14223e-07 -2.74578e-12 -2.75451e-12)
(4.14305e-07 5.98709e-13 5.97203e-13)
(4.14277e-07 4.95385e-13 4.86387e-13)
(4.14282e-07 -5.63942e-13 -5.65135e-13)
(4.14286e-07 6.33854e-13 6.26745e-13)
(4.14277e-07 -3.44662e-13 -3.43958e-13)
(4.14288e-07 2.10415e-13 2.08884e-13)
(4.14275e-07 1.42236e-13 1.43839e-13)
(4.14289e-07 -3.64986e-13 -3.67428e-13)
(4.14274e-07 5.97371e-13 6.01458e-13)
(4.14288e-07 -8.44814e-13 -8.4627e-13)
(4.14276e-07 1.01559e-12 1.01738e-12)
(4.14286e-07 -1.2288e-12 -1.23184e-12)
(4.14277e-07 1.30188e-12 1.30396e-12)
(4.14287e-07 -1.54834e-12 -1.54979e-12)
(4.14279e-07 1.55758e-12 1.56345e-12)
(4.1429e-07 -1.87367e-12 -1.87544e-12)
(4.14282e-07 1.85133e-12 1.85722e-12)
(4.14296e-07 -2.29311e-12 -2.29335e-12)
(4.14286e-07 2.23125e-12 2.22577e-12)
(4.14301e-07 -2.75376e-12 -2.75515e-12)
(4.14286e-07 2.80121e-12 2.80215e-12)
(4.14265e-07 -2.2769e-12 -2.28708e-12)
(4.14219e-07 3.75583e-12 3.74678e-12)
(4.13776e-07 8.36645e-12 8.21584e-12)
(9.30628e-07 7.84041e-11 6.07778e-10)
(9.33768e-07 -2.76436e-10 -4.01491e-10)
(9.33974e-07 1.99223e-10 3.95177e-10)
(9.3442e-07 -2.22978e-10 -4.08616e-10)
(9.33955e-07 2.27312e-10 4.252e-10)
(9.34363e-07 -2.27825e-10 -4.44427e-10)
(9.33772e-07 2.30231e-10 4.65166e-10)
(9.3452e-07 -2.36182e-10 -4.91182e-10)
(9.33467e-07 2.44322e-10 5.13814e-10)
(9.34805e-07 -2.59654e-10 -5.37351e-10)
(9.33087e-07 2.87427e-10 5.50806e-10)
(9.35031e-07 -3.27827e-10 -5.57079e-10)
(9.33113e-07 3.65002e-10 5.58592e-10)
(9.34551e-07 -4.09284e-10 -5.48993e-10)
(9.34116e-07 4.74207e-10 5.16162e-10)
(9.33057e-07 -5.21918e-10 -4.78328e-10)
(9.35783e-07 5.43646e-10 4.3227e-10)
(9.316e-07 -5.11471e-10 -3.70714e-10)
(9.36631e-07 4.4698e-10 3.05322e-10)
(9.31497e-07 -3.49075e-10 -2.35094e-10)
(9.36038e-07 2.52133e-10 1.69292e-10)
(9.325e-07 -1.59271e-10 -1.10235e-10)
(9.34934e-07 9.34436e-11 6.59151e-11)
(9.3345e-07 -4.54653e-11 -3.36621e-11)
(9.3425e-07 2.12683e-11 1.59349e-11)
(9.33869e-07 -6.58183e-12 -5.00813e-12)
(9.34027e-07 2.02623e-12 1.25427e-12)
(9.33973e-07 9.9264e-13 1.09806e-12)
(9.33983e-07 -6.35185e-13 -1.0777e-12)
(9.3399e-07 1.20841e-12 1.52024e-12)
(9.33973e-07 -1.65106e-13 -1.02019e-12)
(9.33994e-07 1.76541e-13 8.8729e-13)
(9.33967e-07 8.24327e-13 -3.92261e-13)
(9.33995e-07 -1.15573e-12 1.38923e-13)
(9.33965e-07 1.66105e-12 4.42539e-13)
(9.33994e-07 -2.1258e-12 -8.55399e-13)
(9.33967e-07 2.28844e-12 1.37969e-12)
(9.33991e-07 -2.82307e-12 -1.8316e-12)
(9.3397e-07 2.54985e-12 2.32946e-12)
(9.33991e-07 -3.52311e-12 -2.74887e-12)
(9.33974e-07 2.68361e-12 3.33756e-12)
(9.33998e-07 -4.38294e-12 -3.60115e-12)
(9.3398e-07 3.05653e-12 4.26671e-12)
(9.34011e-07 -5.51675e-12 -4.55232e-12)
(9.3399e-07 3.72615e-12 5.46371e-12)
(9.34023e-07 -6.50092e-12 -5.45845e-12)
(9.33991e-07 6.17112e-12 7.37823e-12)
(9.33945e-07 -2.70414e-12 -5.26089e-12)
(9.33834e-07 2.64774e-11 1.09597e-11)
(9.32952e-07 4.07691e-11 1.00875e-11)
(1.30963e-06 -1.36472e-10 4.94555e-10)
(1.314e-06 -3.14584e-10 -4.18083e-10)
(1.31433e-06 8.94439e-11 4.15951e-10)
(1.31499e-06 -1.42132e-10 -4.39716e-10)
(1.31434e-06 1.37908e-10 4.64766e-10)
(1.31492e-06 -1.28153e-10 -4.89698e-10)
(1.31408e-06 1.19442e-10 5.21563e-10)
(1.31512e-06 -1.12357e-10 -5.60586e-10)
(1.31369e-06 1.04213e-10 5.94975e-10)
(1.31546e-06 -9.74293e-11 -6.2625e-10)
(1.31324e-06 1.06968e-10 6.41079e-10)
(1.31565e-06 -1.37583e-10 -6.45851e-10)
(1.31341e-06 1.8784e-10 6.31112e-10)
(1.31487e-06 -2.64178e-10 -6.0021e-10)
(1.31486e-06 3.80806e-10 5.41923e-10)
(1.31286e-06 -4.93183e-10 -4.87589e-10)
(1.31701e-06 5.92273e-10 4.4009e-10)
(1.31106e-06 -6.15612e-10 -3.87055e-10)
(1.31796e-06 5.83728e-10 3.24855e-10)
(1.3111e-06 -4.8133e-10 -2.55752e-10)
(1.31705e-06 3.6811e-10 1.89333e-10)
(1.31249e-06 -2.40514e-10 -1.25899e-10)
(1.31558e-06 1.48258e-10 7.85317e-11)
(1.31372e-06 -7.36513e-11 -4.13277e-11)
(1.31471e-06 3.69134e-11 2.0163e-11)
(1.31425e-06 -1.20285e-11 -6.65022e-12)
(1.31444e-06 5.17418e-12 2.01658e-12)
(1.31437e-06 5.19379e-13 1.03217e-12)
(1.31438e-06 4.69969e-13 -1.07538e-12)
(1.31439e-06 1.02217e-12 1.62565e-12)
(1.31437e-06 1.0724e-12 -9.7932e-13)
(1.3144e-06 -4.69365e-13 9.61894e-13)
(1.31436e-06 2.04435e-12 -3.78361e-13)
(1.3144e-06 -2.04932e-12 1.73742e-13)
(1.31436e-06 2.57731e-12 4.65202e-13)
(1.3144e-06 -3.00568e-12 -9.11731e-13)
(1.31436e-06 2.7947e-12 1.48921e-12)
(1.31439e-06 -3.54247e-12 -2.03335e-12)
(1.31436e-06 2.48359e-12 2.52802e-12)
(1.31439e-06 -4.36727e-12 -3.19488e-12)
(1.31437e-06 2.01319e-12 3.69394e-12)
(1.3144e-06 -5.6323e-12 -4.29199e-12)
(1.31438e-06 1.75819e-12 4.74212e-12)
(1.31442e-06 -7.34273e-12 -5.46327e-12)
(1.31439e-06 2.06072e-12 5.9563e-12)
(1.31444e-06 -8.54777e-12 -6.49968e-12)
(1.31439e-06 7.39301e-12 7.77197e-12)
(1.31433e-06 1.65307e-12 -6.80323e-12)
(1.31417e-06 5.56729e-11 1.18285e-11)
(1.31304e-06 7.85534e-11 1.32112e-11)
(1.60779e-06 -1.7911e-10 4.74075e-10)
(1.61305e-06 -4.53199e-10 -3.94365e-10)
(1.61353e-06 3.02342e-11 3.92147e-10)
(1.61435e-06 -1.1808e-10 -4.07841e-10)
(1.61355e-06 1.04666e-10 4.3174e-10)
(1.61427e-06 -8.26512e-11 -4.56179e-10)
(1.61326e-06 6.57737e-11 4.88427e-10)
(1.6145e-06 -4.13393e-11 -5.27629e-10)
(1.61281e-06 1.30072e-11 5.6613e-10)
(1.61484e-06 2.27214e-11 -6.0193e-10)
(1.61237e-06 -4.32586e-11 6.22267e-10)
(1.61495e-06 3.03428e-11 -6.34306e-10)
(1.61269e-06 2.50251e-11 6.25366e-10)
(1.61392e-06 -1.06769e-10 -6.01769e-10)
(1.61446e-06 2.50845e-10 5.40201e-10)
(1.61157e-06 -4.01768e-10 -4.83084e-10)
(1.61688e-06 5.49722e-10 4.43647e-10)
(1.60963e-06 -6.16252e-10 -3.9246e-10)
(1.61782e-06 6.20103e-10 3.31665e-10)
(1.60982e-06 -5.29572e-10 -2.62925e-10)
(1.61666e-06 4.17488e-10 1.96577e-10)
(1.61147e-06 -2.77153e-10 -1.31442e-10)
(1.61496e-06 1.74326e-10 8.2184e-11)
(1.61288e-06 -8.75673e-11 -4.33583e-11)
(1.61398e-06 4.50703e-11 2.13941e-11)
(1.61347e-06 -1.47992e-11 -7.06709e-12)
(1.61368e-06 7.06899e-12 2.31028e-12)
(1.61361e-06 1.6426e-13 9.48291e-13)
(1.61362e-06 1.26621e-12 -9.76533e-13)
(1.61363e-06 8.18092e-13 1.59039e-12)
(1.6136e-06 1.85223e-12 -8.79111e-13)
(1.61363e-06 -8.07725e-13 9.10942e-13)
(1.61359e-06 2.7707e-12 -3.08664e-13)
(1.61364e-06 -2.38709e-12 8.80264e-14)
(1.61359e-06 2.96589e-12 5.51444e-13)
(1.61363e-06 -3.13532e-12 -1.02587e-12)
(1.61359e-06 2.74253e-12 1.5771e-12)
(1.61363e-06 -3.4556e-12 -2.18024e-12)
(1.61359e-06 2.0122e-12 2.57003e-12)
(1.61363e-06 -4.27695e-12 -3.34395e-12)
(1.6136e-06 1.08853e-12 3.67886e-12)
(1.61364e-06 -5.74482e-12 -4.45053e-12)
(1.61361e-06 5.25652e-13 4.62134e-12)
(1.61366e-06 -7.77302e-12 -5.61851e-12)
(1.61363e-06 8.06766e-13 5.73867e-12)
(1.61368e-06 -8.86404e-12 -6.63195e-12)
(1.61363e-06 1.00388e-11 7.69954e-12)
(1.61356e-06 9.41913e-12 -6.22498e-12)
(1.61336e-06 9.16856e-11 1.20882e-11)
(1.61208e-06 1.13795e-10 1.55043e-11)
(1.85061e-06 -3.13782e-10 5.47022e-10)
(1.85652e-06 -6.03113e-10 -4.16216e-10)
(1.85713e-06 -2.71901e-11 4.03244e-10)
(1.85807e-06 -1.1321e-10 -4.15919e-10)
(1.85718e-06 9.83685e-11 4.35099e-10)
(1.858e-06 -6.78021e-11 -4.55997e-10)
(1.85686e-06 5.34252e-11 4.84049e-10)
(1.85822e-06 -2.26094e-11 -5.19167e-10)
(1.8564e-06 -1.06421e-11 5.53972e-10)
(1.85854e-06 6.26459e-11 -5.88223e-10)
(1.85598e-06 -9.96033e-11 6.07429e-10)
(1.85856e-06 1.12282e-10 -6.20208e-10)
(1.85645e-06 -7.12361e-11 6.11487e-10)
(1.85732e-06 -1.41982e-11 -5.91409e-10)
(1.85845e-06 1.63456e-10 5.33389e-10)
(1.85476e-06 -3.27106e-10 -4.76148e-10)
(1.86102e-06 4.95518e-10 4.41912e-10)
(1.85277e-06 -5.84406e-10 -3.92574e-10)
(1.86189e-06 6.11111e-10 3.34377e-10)
(1.85311e-06 -5.32554e-10 -2.67138e-10)
(1.86055e-06 4.27005e-10 2.00724e-10)
(1.85495e-06 -2.86054e-10 -1.34667e-10)
(1.85869e-06 1.81842e-10 8.39833e-11)
(1.85647e-06 -9.21397e-11 -4.43612e-11)
(1.85764e-06 4.81188e-11 2.19828e-11)
(1.8571e-06 -1.5972e-11 -7.30007e-12)
(1.85732e-06 7.98748e-12 2.45332e-12)
(1.85725e-06 -1.31387e-14 9.0543e-13)
(1.85726e-06 1.77516e-12 -9.2656e-13)
(1.85727e-06 7.41581e-13 1.55877e-12)
(1.85724e-06 2.31965e-12 -8.48153e-13)
(1.85728e-06 -8.44287e-13 8.83776e-13)
(1.85723e-06 3.1437e-12 -3.01843e-13)
(1.85728e-06 -2.38238e-12 5.81287e-14)
(1.85723e-06 3.10437e-12 5.48394e-13)
(1.85728e-06 -2.96482e-12 -1.0304e-12)
(1.85722e-06 2.61558e-12 1.55694e-12)
(1.85727e-06 -3.19774e-12 -2.15752e-12)
(1.85723e-06 1.64201e-12 2.52424e-12)
(1.85727e-06 -4.11623e-12 -3.2756e-12)
(1.85724e-06 3.58254e-13 3.61761e-12)
(1.85728e-06 -5.79772e-12 -4.34364e-12)
(1.85725e-06 -4.85038e-13 4.57738e-12)
(1.85731e-06 -8.06865e-12 -5.49829e-12)
(1.85727e-06 -4.53956e-14 5.73857e-12)
(1.85733e-06 -8.85697e-12 -6.5073e-12)
(1.85727e-06 1.30802e-11 7.74182e-12)
(1.8572e-06 1.74488e-11 -5.48723e-12)
(1.85697e-06 1.30002e-10 1.27298e-11)
(1.8556e-06 1.45209e-10 1.63565e-11)
(2.05196e-06 -4.94861e-10 5.38501e-10)
(2.05834e-06 -7.39995e-10 -4.28865e-10)
(2.05908e-06 -1.06267e-10 4.03913e-10)
(2.0601e-06 -8.23875e-11 -4.26436e-10)
(2.05915e-06 6.68942e-11 4.42351e-10)
(2.06002e-06 -2.95882e-11 -4.63834e-10)
(2.05882e-06 2.00921e-11 4.90712e-10)
(2.06024e-06 1.27453e-11 -5.23135e-10)
(2.05835e-06 -3.98599e-11 5.54243e-10)
(2.06051e-06 9.60973e-11 -5.85769e-10)
(2.05799e-06 -1.31793e-10 6.01779e-10)
(2.06043e-06 1.52326e-10 -6.11867e-10)
(2.05859e-06 -1.19326e-10 6.02758e-10)
(2.05905e-06 3.53061e-11 -5.83575e-10)
(2.06074e-06 1.10286e-10 5.26787e-10)
(2.05636e-06 -2.75959e-10 -4.69287e-10)
(2.06337e-06 4.5088e-10 4.37657e-10)
(2.05439e-06 -5.47954e-10 -3.90372e-10)
(2.06417e-06 5.85889e-10 3.34885e-10)
(2.05484e-06 -5.1565e-10 -2.69324e-10)
(2.06269e-06 4.17801e-10 2.02949e-10)
(2.05682e-06 -2.81734e-10 -1.36745e-10)
(2.06073e-06 1.80448e-10 8.51607e-11)
(2.05841e-06 -9.19385e-11 -4.50466e-11)
(2.05963e-06 4.84248e-11 2.2393e-11)
(2.05907e-06 -1.62093e-11 -7.49479e-12)
(2.0593e-06 8.33702e-12 2.54781e-12)
(2.05922e-06 -8.41459e-14 8.78255e-13)
(2.05923e-06 2.07901e-12 -9.05834e-13)
(2.05924e-06 7.38701e-13 1.5518e-12)
(2.05922e-06 2.63465e-12 -8.20965e-13)
(2.05925e-06 -7.8956e-13 8.83687e-13)
(2.0592e-06 3.356e-12 -2.80403e-13)
(2.05925e-06 -2.26519e-12 6.25468e-14)
(2.0592e-06 3.17291e-12 5.51707e-13)
(2.05925e-06 -2.76487e-12 -9.98763e-13)
(2.05919e-06 2.54682e-12 1.5444e-12)
(2.05925e-06 -2.99385e-12 -2.10548e-12)
(2.0592e-06 1.3926e-12 2.50246e-12)
(2.05925e-06 -4.05298e-12 -3.21925e-12)
(2.05921e-06 -2.20094e-13 3.61018e-12)
(2.05926e-06 -5.94481e-12 -4.29178e-12)
(2.05922e-06 -1.36576e-12 4.57169e-12)
(2.05928e-06 -8.37754e-12 -5.46956e-12)
(2.05924e-06 -8.27014e-13 5.74143e-12)
(2.05931e-06 -8.72982e-12 -6.49057e-12)
(2.05924e-06 1.61213e-11 7.74092e-12)
(2.05917e-06 2.55997e-11 -5.18784e-12)
(2.05893e-06 1.67375e-10 1.34159e-11)
(2.0575e-06 1.72932e-10 1.71929e-11)
(2.22064e-06 -6.08487e-10 5.21704e-10)
(2.22734e-06 -8.88957e-10 -4.28426e-10)
(2.22818e-06 -1.65808e-10 3.99782e-10)
(2.22925e-06 -5.85656e-11 -4.2666e-10)
(2.22827e-06 3.95419e-11 4.41737e-10)
(2.22918e-06 4.16516e-12 -4.6594e-10)
(2.22794e-06 -9.38086e-12 4.93796e-10)
(2.22938e-06 4.62086e-11 -5.26241e-10)
(2.22749e-06 -6.72747e-11 5.5685e-10)
(2.2296e-06 1.25757e-10 -5.87182e-10)
(2.22719e-06 -1.55611e-10 6.00806e-10)
(2.22943e-06 1.77703e-10 -6.08182e-10)
(2.22789e-06 -1.45882e-10 5.99102e-10)
(2.22793e-06 6.56423e-11 -5.79381e-10)
(2.23014e-06 7.44653e-11 5.22301e-10)
(2.22518e-06 -2.38664e-10 -4.63887e-10)
(2.23279e-06 4.13498e-10 4.33326e-10)
(2.22324e-06 -5.11614e-10 -3.87601e-10)
(2.23351e-06 5.54228e-10 3.34186e-10)
(2.2238e-06 -4.9041e-10 -2.70099e-10)
(2.23193e-06 4.00362e-10 2.04053e-10)
(2.22587e-06 -2.71231e-10 -1.38064e-10)
(2.22989e-06 1.74757e-10 8.61117e-11)
(2.22752e-06 -8.9336e-11 -4.55786e-11)
(2.22877e-06 4.73424e-11 2.27281e-11)
(2.22819e-06 -1.59279e-11 -7.67517e-12)
(2.22842e-06 8.35979e-12 2.62801e-12)
(2.22834e-06 -9.85774e-14 8.49779e-13)
(2.22836e-06 2.26967e-12 -8.77025e-13)
(2.22837e-06 7.6565e-13 1.54912e-12)
(2.22834e-06 2.82125e-12 -7.99893e-13)
(2.22837e-06 -6.91246e-13 8.96975e-13)
(2.22833e-06 3.46116e-12 -2.64876e-13)
(2.22838e-06 -2.10085e-12 6.79511e-14)
(2.22832e-06 3.19043e-12 5.55098e-13)
(2.22838e-06 -2.54747e-12 -9.77801e-13)
(2.22832e-06 2.48795e-12 1.53828e-12)
(2.22837e-06 -2.78948e-12 -2.08217e-12)
(2.22832e-06 1.18681e-12 2.49586e-12)
(2.22837e-06 -3.95952e-12 -3.20729e-12)
(2.22833e-06 -7.20603e-13 3.59614e-12)
(2.22838e-06 -6.02914e-12 -4.29187e-12)
(2.22834e-06 -2.12002e-12 4.5449e-12)
(2.22841e-06 -8.55151e-12 -5.4842e-12)
(2.22836e-06 -1.42357e-12 5.70278e-12)
(2.22844e-06 -8.43524e-12 -6.51571e-12)
(2.22836e-06 1.92673e-11 7.80577e-12)
(2.2283e-06 3.35601e-11 -5.00827e-12)
(2.22804e-06 2.00809e-10 1.45456e-11)
(2.22659e-06 1.95995e-10 1.79739e-11)
(2.36277e-06 -6.94444e-10 5.23026e-10)
(2.36966e-06 -1.03997e-09 -4.2733e-10)
(2.37058e-06 -2.10817e-10 3.98617e-10)
(2.37167e-06 -5.15551e-11 -4.21742e-10)
(2.37069e-06 2.42278e-11 4.3917e-10)
(2.3716e-06 2.50778e-11 -4.64562e-10)
(2.37037e-06 -2.65395e-11 4.9296e-10)
(2.37178e-06 6.84772e-11 -5.2582e-10)
(2.36995e-06 -8.33184e-11 5.5706e-10)
(2.37196e-06 1.44418e-10 -5.87432e-10)
(2.3697e-06 -1.68702e-10 6.00372e-10)
(2.3717e-06 1.90737e-10 -6.06302e-10)
(2.37049e-06 -1.59839e-10 5.98275e-10)
(2.37013e-06 8.36927e-11 -5.79004e-10)
(2.37279e-06 4.92075e-11 5.20088e-10)
(2.36737e-06 -2.09008e-10 -4.60657e-10)
(2.37543e-06 3.79714e-10 4.29916e-10)
(2.36547e-06 -4.75591e-10 -3.85315e-10)
(2.37608e-06 5.19774e-10 3.33203e-10)
(2.36611e-06 -4.61708e-10 -2.7021e-10)
(2.37442e-06 3.79046e-10 2.04665e-10)
(2.36824e-06 -2.57626e-10 -1.38933e-10)
(2.37234e-06 1.66729e-10 8.6861e-11)
(2.36992e-06 -8.54005e-11 -4.6017e-11)
(2.3712e-06 4.54908e-11 2.30096e-11)
(2.3706e-06 -1.53419e-11 -7.84069e-12)
(2.37085e-06 8.19678e-12 2.6963e-12)
(2.37076e-06 -7.59965e-14 8.18809e-13)
(2.37078e-06 2.39078e-12 -8.5619e-13)
(2.37079e-06 8.13774e-13 1.54574e-12)
(2.37076e-06 2.92803e-12 -7.91145e-13)
(2.3708e-06 -5.426e-13 8.6172e-13)
(2.37075e-06 3.48696e-12 -2.58813e-13)
(2.3708e-06 -1.89261e-12 6.95296e-14)
(2.37074e-06 3.16738e-12 5.52353e-13)
(2.3708e-06 -2.2993e-12 -9.70197e-13)
(2.37074e-06 2.42391e-12 1.53269e-12)
(2.37079e-06 -2.55813e-12 -2.0733e-12)
(2.37074e-06 1.01795e-12 2.49158e-12)
(2.37079e-06 -3.8036e-12 -3.2074e-12)
(2.37075e-06 -1.10892e-12 3.57024e-12)
(2.37081e-06 -6.0268e-12 -4.29584e-12)
(2.37076e-06 -2.72977e-12 4.54392e-12)
(2.37083e-06 -8.61034e-12 -5.48674e-12)
(2.37078e-06 -1.832e-12 5.69773e-12)
(2.37086e-06 -8.06412e-12 -6.54038e-12)
(2.37078e-06 2.23112e-11 7.90238e-12)
(2.37073e-06 4.07795e-11 -4.86863e-12)
(2.37045e-06 2.27706e-10 1.58594e-11)
(2.36901e-06 2.1394e-10 1.86451e-11)
(2.48292e-06 -7.70102e-10 5.28321e-10)
(2.48988e-06 -1.17242e-09 -4.30018e-10)
(2.49087e-06 -2.5175e-10 3.97987e-10)
(2.49195e-06 -5.16621e-11 -4.1758e-10)
(2.49099e-06 1.47055e-11 4.38672e-10)
(2.49188e-06 3.67178e-11 -4.63503e-10)
(2.49068e-06 -3.37418e-11 4.91671e-10)
(2.49204e-06 8.02502e-11 -5.24431e-10)
(2.49029e-06 -8.88248e-11 5.56007e-10)
(2.49216e-06 1.51727e-10 -5.86619e-10)
(2.4901e-06 -1.71046e-10 5.99577e-10)
(2.49185e-06 1.93201e-10 -6.05021e-10)
(2.49095e-06 -1.6419e-10 5.98326e-10)
(2.49023e-06 9.20158e-11 -5.79937e-10)
(2.49327e-06 3.19752e-11 5.19037e-10)
(2.48747e-06 -1.84652e-10 -4.58937e-10)
(2.49588e-06 3.47872e-10 4.27421e-10)
(2.48563e-06 -4.39812e-10 -3.83737e-10)
(2.49648e-06 4.8412e-10 3.3238e-10)
(2.48632e-06 -4.3157e-10 -2.7015e-10)
(2.49477e-06 3.55769e-10 2.05126e-10)
(2.4885e-06 -2.42313e-10 -1.39577e-10)
(2.49266e-06 1.57367e-10 8.74665e-11)
(2.4902e-06 -8.06812e-11 -4.64033e-11)
(2.49149e-06 4.31898e-11 2.32595e-11)
(2.49089e-06 -1.456e-11 -7.98689e-12)
(2.49114e-06 7.91838e-12 2.76003e-12)
(2.49106e-06 -3.4968e-14 7.9064e-13)
(2.49107e-06 2.45664e-12 -8.40251e-13)
(2.49108e-06 8.70334e-13 1.54378e-12)
(2.49105e-06 2.97927e-12 -7.87851e-13)
(2.49109e-06 -3.6693e-13 8.3953e-13)
(2.49104e-06 3.45937e-12 -2.53515e-13)
(2.49109e-06 -1.65915e-12 7.12067e-14)
(2.49103e-06 3.11133e-12 5.50688e-13)
(2.49109e-06 -2.03563e-12 -9.66815e-13)
(2.49103e-06 2.35136e-12 1.52949e-12)
(2.49109e-06 -2.32514e-12 -2.06641e-12)
(2.49103e-06 8.85973e-13 2.49135e-12)
(2.49109e-06 -3.61569e-12 -3.20281e-12)
(2.49104e-06 -1.38207e-12 3.57184e-12)
(2.4911e-06 -5.95748e-12 -4.29339e-12)
(2.49105e-06 -3.18714e-12 4.53708e-12)
(2.49113e-06 -8.58446e-12 -5.4806e-12)
(2.49107e-06 -2.09776e-12 5.70381e-12)
(2.49116e-06 -7.66153e-12 -6.56282e-12)
(2.49107e-06 2.49638e-11 7.9829e-12)
(2.49103e-06 4.69291e-11 -4.80426e-12)
(2.49075e-06 2.4741e-10 1.70365e-11)
(2.48931e-06 2.26638e-10 1.92409e-11)
(2.5846e-06 -8.24309e-10 5.30776e-10)
(2.59154e-06 -1.2754e-09 -4.34416e-10)
(2.59257e-06 -2.88082e-10 3.97934e-10)
(2.59363e-06 -5.12889e-11 -4.18029e-10)
(2.59271e-06 6.57455e-12 4.38904e-10)
(2.59357e-06 4.4404e-11 -4.63312e-10)
(2.59242e-06 -3.6508e-11 4.91018e-10)
(2.5937e-06 8.59672e-11 -5.2344e-10)
(2.59206e-06 -8.77449e-11 5.54956e-10)
(2.59378e-06 1.51326e-10 -5.85702e-10)
(2.59192e-06 -1.65991e-10 5.98685e-10)
(2.59341e-06 1.87926e-10 -6.03925e-10)
(2.59281e-06 -1.61434e-10 5.98572e-10)
(2.59177e-06 9.41432e-11 -5.7789e-10)
(2.59514e-06 2.08416e-11 5.18514e-10)
(2.58903e-06 -1.64279e-10 -4.58064e-10)
(2.5977e-06 3.17356e-10 4.25618e-10)
(2.58724e-06 -4.04268e-10 -3.82727e-10)
(2.59826e-06 4.47917e-10 3.3184e-10)
(2.58797e-06 -4.00757e-10 -2.70145e-10)
(2.59652e-06 3.31434e-10 2.05569e-10)
(2.59018e-06 -2.25991e-10 -1.40119e-10)
(2.59438e-06 1.47206e-10 8.7985e-11)
(2.5919e-06 -7.54833e-11 -4.67584e-11)
(2.59321e-06 4.06118e-11 2.34887e-11)
(2.5926e-06 -1.36526e-11 -8.11933e-12)
(2.59285e-06 7.56288e-12 2.82007e-12)
(2.59276e-06 8.41393e-15 7.62537e-13)
(2.59278e-06 2.4757e-12 -8.25888e-13)
(2.59279e-06 9.19405e-13 1.54448e-12)
(2.59276e-06 2.98352e-12 -7.86218e-13)
(2.5928e-06 -2.0946e-13 8.55208e-13)
(2.59275e-06 3.38698e-12 -2.48979e-13)
(2.5928e-06 -1.42551e-12 7.43674e-14)
(2.59274e-06 3.02257e-12 5.49713e-13)
(2.5928e-06 -1.77521e-12 -9.65089e-13)
(2.59273e-06 2.26415e-12 1.53048e-12)
(2.5928e-06 -2.11053e-12 -2.06003e-12)
(2.59274e-06 7.79079e-13 2.49278e-12)
(2.5928e-06 -3.41708e-12 -3.1956e-12)
(2.59274e-06 -1.57001e-12 3.57539e-12)
(2.59281e-06 -5.82304e-12 -4.28938e-12)
(2.59275e-06 -3.48883e-12 4.5291e-12)
(2.59284e-06 -8.45886e-12 -5.4783e-12)
(2.59277e-06 -2.23382e-12 5.71368e-12)
(2.59286e-06 -7.21937e-12 -6.58204e-12)
(2.59278e-06 2.70795e-11 8.04952e-12)
(2.59274e-06 5.17812e-11 -4.84032e-12)
(2.59246e-06 2.60468e-10 1.79717e-11)
(2.59104e-06 2.3407e-10 1.97913e-11)
(2.67064e-06 -8.52342e-10 5.31984e-10)
(2.67747e-06 -1.34686e-09 -4.37789e-10)
(2.67854e-06 -3.17637e-10 3.98718e-10)
(2.67956e-06 -5.09097e-11 -4.20222e-10)
(2.67868e-06 4.03388e-13 4.38903e-10)
(2.67949e-06 4.97273e-11 -4.63347e-10)
(2.67841e-06 -3.71203e-11 4.90688e-10)
(2.67959e-06 8.82812e-11 -5.22921e-10)
(2.67809e-06 -8.32864e-11 5.54307e-10)
(2.67964e-06 1.46293e-10 -5.85012e-10)
(2.67799e-06 -1.56566e-10 5.98014e-10)
(2.67924e-06 1.77651e-10 -6.031e-10)
(2.6789e-06 -1.53849e-10 5.9882e-10)
(2.67759e-06 9.21396e-11 -5.74274e-10)
(2.68122e-06 1.39675e-11 5.18362e-10)
(2.67489e-06 -1.46679e-10 -4.57728e-10)
(2.68375e-06 2.8785e-10 4.24288e-10)
(2.67313e-06 -3.68971e-10 -3.82086e-10)
(2.68427e-06 4.11329e-10 3.3154e-10)
(2.67389e-06 -3.69497e-10 -2.70241e-10)
(2.6825e-06 3.06462e-10 2.06019e-10)
(2.67612e-06 -2.09051e-10 -1.40604e-10)
(2.68035e-06 1.36551e-10 8.8448e-11)
(2.67785e-06 -6.99867e-11 -4.70882e-11)
(2.67917e-06 3.78543e-11 2.37013e-11)
(2.67856e-06 -1.26782e-11 -8.24075e-12)
(2.67881e-06 7.15203e-12 2.87694e-12)
(2.67872e-06 4.67171e-14 7.33264e-13)
(2.67874e-06 2.45323e-12 -8.14386e-13)
(2.67875e-06 9.50503e-13 1.54496e-12)
(2.67872e-06 2.94463e-12 -7.84646e-13)
(2.67876e-06 -7.25904e-14 8.41229e-13)
(2.67871e-06 3.27396e-12 -2.47917e-13)
(2.67876e-06 -1.20919e-12 7.73972e-14)
(2.6787e-06 2.90106e-12 5.49499e-13)
(2.67876e-06 -1.52947e-12 -9.63419e-13)
(2.67869e-06 2.15652e-12 1.53343e-12)
(2.67876e-06 -1.91768e-12 -2.0554e-12)
(2.6787e-06 6.87219e-13 2.49545e-12)
(2.67876e-06 -3.2132e-12 -3.1872e-12)
(2.6787e-06 -1.68715e-12 3.58077e-12)
(2.67877e-06 -5.61884e-12 -4.28655e-12)
(2.67871e-06 -3.6513e-12 4.52579e-12)
(2.6788e-06 -8.21223e-12 -5.47974e-12)
(2.67873e-06 -2.25668e-12 5.72467e-12)
(2.67882e-06 -6.72873e-12 -6.59881e-12)
(2.67874e-06 2.85774e-11 8.10649e-12)
(2.67871e-06 5.51972e-11 -4.9748e-12)
(2.67843e-06 2.67541e-10 1.87052e-11)
(2.67704e-06 2.36324e-10 2.02914e-11)
(2.74333e-06 -8.56595e-10 5.33522e-10)
(2.74999e-06 -1.38728e-09 -4.39569e-10)
(2.75107e-06 -3.38744e-10 4.01386e-10)
(2.75204e-06 -5.16733e-11 -4.21915e-10)
(2.75122e-06 -3.2301e-12 4.3865e-10)
(2.75196e-06 5.28013e-11 -4.63224e-10)
(2.75098e-06 -3.58854e-11 4.90344e-10)
(2.75205e-06 8.78781e-11 -5.22571e-10)
(2.75069e-06 -7.69134e-11 5.53918e-10)
(2.75206e-06 1.38183e-10 -5.84497e-10)
(2.75062e-06 -1.44618e-10 5.97625e-10)
(2.75164e-06 1.64213e-10 -6.02603e-10)
(2.75154e-06 -1.43346e-10 5.99018e-10)
(2.75e-06 8.68246e-11 -5.71465e-10)
(2.75383e-06 9.7177e-12 5.18494e-10)
(2.74733e-06 -1.30785e-10 -4.57757e-10)
(2.75633e-06 2.59171e-10 4.23293e-10)
(2.74561e-06 -3.33972e-10 -3.81679e-10)
(2.75682e-06 3.74383e-10 3.31376e-10)
(2.74639e-06 -3.37855e-10 -2.70404e-10)
(2.75505e-06 2.81044e-10 2.0646e-10)
(2.74863e-06 -1.91731e-10 -1.41047e-10)
(2.75289e-06 1.25585e-10 8.88659e-11)
(2.75037e-06 -6.43032e-11 -4.73944e-11)
(2.7517e-06 3.4974e-11 2.38981e-11)
(2.75108e-06 -1.16659e-11 -8.35282e-12)
(2.75134e-06 6.69796e-12 2.92879e-12)
(2.75125e-06 7.58386e-14 7.0356e-13)
(2.75127e-06 2.39321e-12 -8.05032e-13)
(2.75128e-06 9.55908e-13 1.54303e-12)
(2.75125e-06 2.86437e-12 -7.83763e-13)
(2.75128e-06 5.15704e-14 8.27093e-13)
(2.75123e-06 3.1228e-12 -2.47945e-13)
(2.75129e-06 -1.02019e-12 8.01952e-14)
(2.75122e-06 2.74664e-12 5.49264e-13)
(2.75129e-06 -1.30525e-12 -9.6349e-13)
(2.75122e-06 2.0245e-12 1.537e-12)
(2.75128e-06 -1.74319e-12 -2.0524e-12)
(2.75122e-06 6.03015e-13 2.49864e-12)
(2.75128e-06 -3.0036e-12 -3.18066e-12)
(2.75122e-06 -1.74571e-12 3.58622e-12)
(2.75129e-06 -5.34329e-12 -4.28528e-12)
(2.75124e-06 -3.68447e-12 4.52612e-12)
(2.75132e-06 -7.83483e-12 -5.48383e-12)
(2.75125e-06 -2.17921e-12 5.73574e-12)
(2.75135e-06 -6.19324e-12 -6.61151e-12)
(2.75126e-06 2.94076e-11 8.15764e-12)
(2.75125e-06 5.7083e-11 -5.18105e-12)
(2.75096e-06 2.69024e-10 1.93219e-11)
(2.7496e-06 2.33598e-10 2.07418e-11)
(2.80457e-06 -8.39741e-10 5.35608e-10)
(2.811e-06 -1.39685e-09 -4.40649e-10)
(2.8121e-06 -3.50807e-10 4.03254e-10)
(2.813e-06 -5.38302e-11 -4.2315e-10)
(2.81224e-06 -4.66221e-12 4.38384e-10)
(2.81291e-06 5.39282e-11 -4.6299e-10)
(2.81202e-06 -3.29981e-11 4.89933e-10)
(2.81298e-06 8.51251e-11 -5.22246e-10)
(2.81176e-06 -6.92864e-11 5.53584e-10)
(2.81297e-06 1.27866e-10 -5.84069e-10)
(2.81171e-06 -1.3127e-10 5.97451e-10)
(2.81254e-06 1.48877e-10 -6.02377e-10)
(2.81264e-06 -1.31147e-10 5.99163e-10)
(2.81091e-06 7.96038e-11 -5.70693e-10)
(2.8149e-06 6.9216e-12 5.18814e-10)
(2.80828e-06 -1.1584e-10 -4.58021e-10)
(2.81737e-06 2.31216e-10 4.22554e-10)
(2.80658e-06 -2.99346e-10 -3.81429e-10)
(2.81785e-06 3.37177e-10 3.31263e-10)
(2.80737e-06 -3.05855e-10 -2.70575e-10)
(2.81607e-06 2.55286e-10 2.06873e-10)
(2.80962e-06 -1.74183e-10 -1.4146e-10)
(2.8139e-06 1.1442e-10 8.92465e-11)
(2.81137e-06 -5.85058e-11 -4.76748e-11)
(2.81271e-06 3.20036e-11 2.40802e-11)
(2.81208e-06 -1.06347e-11 -8.4559e-12)
(2.81234e-06 6.20807e-12 2.97647e-12)
(2.81225e-06 9.09004e-14 6.76485e-13)
(2.81227e-06 2.29646e-12 -7.96779e-13)
(2.81228e-06 9.29972e-13 1.54136e-12)
(2.81225e-06 2.74218e-12 -7.82427e-13)
(2.81229e-06 1.44742e-13 8.4182e-13)
(2.81224e-06 2.93285e-12 -2.4854e-13)
(2.81229e-06 -8.62444e-13 8.10332e-14)
(2.81223e-06 2.55892e-12 5.48782e-13)
(2.81229e-06 -1.10746e-12 -9.6359e-13)
(2.81222e-06 1.8653e-12 1.53982e-12)
(2.81229e-06 -1.5828e-12 -2.05141e-12)
(2.81222e-06 5.19265e-13 2.50402e-12)
(2.81229e-06 -2.78496e-12 -3.17604e-12)
(2.81223e-06 -1.75382e-12 3.59008e-12)
(2.8123e-06 -4.99565e-12 -4.28453e-12)
(2.81224e-06 -3.59415e-12 4.53155e-12)
(2.81232e-06 -7.32482e-12 -5.48667e-12)
(2.81225e-06 -2.01215e-12 5.74425e-12)
(2.81235e-06 -5.61845e-12 -6.62308e-12)
(2.81226e-06 2.95465e-11 8.20574e-12)
(2.81226e-06 5.73981e-11 -5.42627e-12)
(2.81198e-06 2.65089e-10 1.98738e-11)
(2.81065e-06 2.26171e-10 2.11371e-11)
(2.85593e-06 -8.03354e-10 5.37978e-10)
(2.8621e-06 -1.37557e-09 -4.41624e-10)
(2.8632e-06 -3.53932e-10 4.02916e-10)
(2.86403e-06 -5.6425e-11 -4.24137e-10)
(2.86334e-06 -4.22496e-12 4.38206e-10)
(2.86394e-06 5.35923e-11 -4.62747e-10)
(2.86314e-06 -2.88022e-11 4.89548e-10)
(2.86399e-06 8.04577e-11 -5.21925e-10)
(2.8629e-06 -6.08977e-11 5.53268e-10)
(2.86396e-06 1.15973e-10 -5.83704e-10)
(2.86287e-06 -1.17158e-10 5.97439e-10)
(2.86353e-06 1.3248e-10 -6.02345e-10)
(2.86379e-06 -1.17889e-10 5.99273e-10)
(2.86192e-06 7.13635e-11 -5.70837e-10)
(2.86603e-06 4.77042e-12 5.19257e-10)
(2.85931e-06 -1.01423e-10 -4.5842e-10)
(2.86847e-06 2.03904e-10 4.22029e-10)
(2.85764e-06 -2.65151e-10 -3.81297e-10)
(2.86894e-06 2.99897e-10 3.31155e-10)
(2.85844e-06 -2.73479e-10 -2.70712e-10)
(2.86716e-06 2.29211e-10 2.07261e-10)
(2.86069e-06 -1.56488e-10 -1.41848e-10)
(2.86499e-06 1.03118e-10 8.95967e-11)
(2.86244e-06 -5.26444e-11 -4.79288e-11)
(2.86379e-06 2.8962e-11 2.42478e-11)
(2.86316e-06 -9.5965e-12 -8.55054e-12)
(2.86342e-06 5.68636e-12 3.01848e-12)
(2.86333e-06 8.8129e-14 6.51122e-13)
(2.86335e-06 2.16284e-12 -7.88387e-13)
(2.86336e-06 8.69898e-13 1.54115e-12)
(2.86333e-06 2.57683e-12 -7.81574e-13)
(2.86337e-06 1.92889e-13 8.54751e-13)
(2.86332e-06 2.70226e-12 -2.48949e-13)
(2.86337e-06 -7.37408e-13 8.15541e-14)
(2.86331e-06 2.33732e-12 5.47984e-13)
(2.86337e-06 -9.4059e-13 -9.63279e-13)
(2.8633e-06 1.67698e-12 1.54311e-12)
(2.86337e-06 -1.43278e-12 -2.05117e-12)
(2.8633e-06 4.30221e-13 2.51013e-12)
(2.86337e-06 -2.5503e-12 -3.17584e-12)
(2.86331e-06 -1.71508e-12 3.59315e-12)
(2.86338e-06 -4.57286e-12 -4.28011e-12)
(2.86331e-06 -3.38542e-12 4.53761e-12)
(2.8634e-06 -6.6822e-12 -5.48312e-12)
(2.86333e-06 -1.76519e-12 5.75185e-12)
(2.86343e-06 -5.00728e-12 -6.6333e-12)
(2.86334e-06 2.89869e-11 8.25242e-12)
(2.86335e-06 5.61492e-11 -5.67636e-12)
(2.86307e-06 2.55793e-10 2.04214e-11)
(2.86177e-06 2.14382e-10 2.14854e-11)
(2.89874e-06 -7.48907e-10 5.40518e-10)
(2.90463e-06 -1.32365e-09 -4.42677e-10)
(2.90572e-06 -3.47677e-10 4.02445e-10)
(2.90647e-06 -5.83557e-11 -4.24825e-10)
(2.90585e-06 -2.06578e-12 4.38104e-10)
(2.90637e-06 5.21632e-11 -4.62549e-10)
(2.90566e-06 -2.37112e-11 4.89267e-10)
(2.90641e-06 7.42784e-11 -5.21622e-10)
(2.90545e-06 -5.21975e-11 5.52978e-10)
(2.90638e-06 1.03009e-10 -5.83423e-10)
(2.90544e-06 -1.02715e-10 5.97543e-10)
(2.90594e-06 1.15536e-10 -6.02429e-10)
(2.90634e-06 -1.04042e-10 5.99319e-10)
(2.90435e-06 6.26335e-11 -5.71334e-10)
(2.90856e-06 2.72541e-12 5.19757e-10)
(2.90177e-06 -8.73757e-11 -4.58844e-10)
(2.91098e-06 1.77155e-10 4.21675e-10)
(2.90011e-06 -2.31416e-10 -3.81242e-10)
(2.91144e-06 2.62734e-10 3.31062e-10)
(2.90092e-06 -2.40711e-10 -2.70776e-10)
(2.90966e-06 2.02751e-10 2.07611e-10)
(2.90317e-06 -1.38691e-10 -1.42199e-10)
(2.90748e-06 9.17026e-11 8.99212e-11)
(2.90493e-06 -4.67502e-11 -4.81588e-11)
(2.90628e-06 2.58583e-11 2.44021e-11)
(2.90565e-06 -8.5588e-12 -8.63618e-12)
(2.90591e-06 5.13253e-12 3.05502e-12)
(2.90582e-06 6.60578e-14 6.28506e-13)
(2.90584e-06 1.9928e-12 -7.80213e-13)
(2.90585e-06 7.74494e-13 1.54087e-12)
(2.90582e-06 2.36833e-12 -7.80561e-13)
(2.90586e-06 2.0215e-13 8.57981e-13)
(2.90581e-06 2.42912e-12 -2.4855e-13)
(2.90586e-06 -6.4648e-13 8.26309e-14)
(2.9058e-06 2.08156e-12 5.4889e-13)
(2.90586e-06 -8.07058e-13 -9.62281e-13)
(2.9058e-06 1.45823e-12 1.54766e-12)
(2.90586e-06 -1.29043e-12 -2.05183e-12)
(2.90579e-06 3.311e-13 2.51743e-12)
(2.90586e-06 -2.28945e-12 -3.17856e-12)
(2.9058e-06 -1.63044e-12 3.59521e-12)
(2.90587e-06 -4.07019e-12 -4.27759e-12)
(2.9058e-06 -3.06453e-12 4.54191e-12)
(2.90589e-06 -5.90913e-12 -5.4753e-12)
(2.90582e-06 -1.44888e-12 5.75769e-12)
(2.90592e-06 -4.36033e-12 -6.64468e-12)
(2.90582e-06 2.77314e-11 8.2987e-12)
(2.90585e-06 5.33833e-11 -5.90425e-12)
(2.90557e-06 2.41112e-10 2.10182e-11)
(2.9043e-06 1.9861e-10 2.17843e-11)
(2.93409e-06 -6.78358e-10 5.43186e-10)
(2.93969e-06 -1.24165e-09 -4.43769e-10)
(2.94077e-06 -3.31758e-10 4.02204e-10)